LAMMPS data file via write_data, version 23 Jun 2022, timestep = 6041728

10944 atoms
10 atom types
11418 bonds
13 bond types
21288 angles
18 angle types
32388 dihedrals
58 dihedral types
1716 impropers
7 improper types

16.234121229488807 68.76587877051716 xlo xhi
16.234121229488807 68.76587877051716 ylo yhi
16.234121229488807 68.76587877051716 zlo zhi

Masses

1 12.01
2 1.008
3 19
4 14.01
5 12.01
6 1.008
7 1.008
8 12.01
9 12.01
10 14.01

Pair Coeffs # lj/cut/coul/long

1 0.0988 3.31521
2 0.01 1.1065
3 0.0832 3.03422
4 0.215 3.18995
5 0.1078 3.39771
6 0.0161 2.62548
7 0.0208 2.60018
8 0.0988 3.31521
9 0.0988 3.31521
10 0.215 3.18995

Bond Coeffs # harmonic

1 352.65 1.35
2 232.52 1.538
3 368.44 1.406
4 250.32 1.516
5 277.6 1.485
6 378.57 1.398
7 375.92 1.097
8 529.46 1.012
9 395.72 1.086
10 347.06 1.386
11 378.57 1.398
12 529.46 1.012
13 347.06 1.386

Angle Coeffs # harmonic

1 68.394 120.69
2 86.163 120.95
3 48.787 116.07
4 48.475 119.86
5 66.121 121.11
6 121.555 107.36
7 65.482 120.63
8 46.816 109.8
9 38.96 107.58
10 65.187 127.46
11 48.68 119.88
12 87.947 109.24
13 64.888 111.51
14 65.583 120.77
15 65.183 112.07
16 68.767 120.02
17 65.611 112.24
18 68.877 118.38

Dihedral Coeffs # fourier

1 1 0.795 2 180
2 1 0.12 3 0
3 2 0.22 3 0 1.97 1 180
4 3 0.13 3 0 0.29 2 180 0.11 1 0
5 1 0.245 2 180
6 2 0.08 3 0 0.08 3 0
7 1 1.05 2 180
8 1 0 2 180
9 1 0 2 0
10 1 3.625 2 180
11 1 0.155556 3 0
12 1 3.625 2 180
13 2 1 3 0 0.64 1 180
14 1 0 0 0
15 1 0 0 0
16 1 0 0 0
17 1 0 0 0
18 1 0 0 0
19 1 0 0 0
20 1 0 0 0
21 1 0 0 0
22 1 0 0 0
23 1 0 0 0
24 1 0 0 0
25 1 0 0 0
26 1 0 0 0
27 1 0 0 0
28 1 0 0 0
29 1 0 0 0
30 1 0 0 0
31 1 0 0 0
32 1 0 0 0
33 1 0 0 0
34 1 0 0 0
35 1 0 0 0
36 1 0 0 0
37 1 0 0 0
38 1 0 0 0
39 1 0 0 0
40 1 0 0 0
41 1 0 0 0
42 1 0 0 0
43 1 0 0 0
44 1 0 0 0
45 1 0 0 0
46 1 0 0 0
47 1 0 0 0
48 1 0 0 0
49 1 0 0 0
50 1 0 0 0
51 1 0 0 0
52 1 0 0 0
53 1 0 0 0
54 1 0 0 0
55 1 0 0 0
56 1 0 0 0
57 1 0 0 0
58 1 0 0 0

Improper Coeffs # cvff

1 1.1 -1 2
2 1.1 -1 2
3 1.1 -1 2
4 1.1 -1 2
5 1.1 -1 2
6 1.1 -1 2
7 1.1 -1 2

Atoms # full

2178 5 3 -0.2161 23.99952989720923 18.147305280521337 23.197078233156223 1 0 1
1160 5 3 -0.2161 24.106679091546614 16.41429698561768 20.634069144945325 1 0 1
1239 5 8 -0.05925 27.787070339589334 19.18511171702424 20.81350113148958 1 0 1
125 8 3 -0.2033 16.88781003082243 25.031431175034662 23.31604772551917 0 0 0
218 3 3 -0.2161 22.994321162091893 26.63330585171527 20.609764198963923 1 0 1
1053 2 5 0.3486 20.532760448791436 16.743442113330275 16.742743863847842 0 1 1
11 3 8 -0.07199999999999999 19.70977615605725 20.723160417841797 20.057679864181164 1 0 1
2063 3 8 0.1896 19.491571857484516 18.805151246590622 24.173306486663947 1 0 1
1159 5 8 -0.1678 26.680134481371866 19.00530556555061 21.684830981301076 1 0 1
7 3 1 -0.07000000000000001 18.115396560979004 21.329554961440437 18.207183535500285 1 0 1
1161 5 8 -0.05925 25.24704841276974 20.8287920238836 20.036306801983038 1 0 1
8 3 6 0.139 19.951399660244363 22.402838881855008 17.553009507974938 1 0 1
234 3 5 -0.1204 29.063185499109373 26.430626753293975 17.857781817657113 0 1 -1
2177 5 3 -0.2161 22.85852835594701 18.856576890192933 21.515172556688462 1 0 1
1057 2 3 -0.1743 19.23650355455132 16.272626234720185 16.586784640060426 0 1 1
2064 3 6 0.148 21.831605329635455 16.396061984154244 23.949118235943047 1 0 1
119 8 3 -0.1743 20.566576522970305 24.810113692159838 24.110465446016136 0 0 0
1228 8 3 -0.1743 18.049363172823792 22.20261891890155 24.54808696984131 0 0 0
2186 5 8 -0.05925 27.010913661861753 19.140524889269592 23.12735646874643 1 0 1
320 3 3 -0.1743 18.148811280953858 28.649546228975616 17.81924084619658 1 0 1
1340 3 8 -0.05925 21.78115520302072 28.440103288838777 22.848548997473475 1 0 1
1151 5 6 0.148 24.444092614429906 17.988912436484206 18.394487447555893 1 0 1
223 3 8 -0.05925 23.950027662096208 29.243644800109415 19.574575658727138 1 0 1
121 8 3 -0.2033 18.401353747476584 26.52000645581474 22.988456443297576 0 0 0
1052 2 3 -0.1743 21.83159064005929 18.881793411747473 16.448485724297228 0 1 1
2061 3 4 -0.626 18.601335468241743 19.47420818644862 23.3636194615442 1 0 1
1234 8 3 -0.1743 19.916934393590147 24.43524479102896 21.425925889551838 0 0 0
1037 3 8 -0.0713 17.31016717634793 20.423113636756913 20.15291184154273 1 0 1
1339 3 8 -0.05925 23.555183884545492 28.41978581375281 24.55923278486918 1 0 1
1148 3 6 0.148 20.67306429850663 20.26981409692968 21.91842661777683 1 0 1
1164 5 6 0.14525 24.957189585436225 22.82082746092431 19.226407828204863 1 0 1
9 3 1 -0.07000000000000001 18.43522553089408 20.845376707957218 19.514424112581757 1 0 1
2060 3 6 0.14525 20.41971779473161 17.95343358800855 22.554502094794092 1 0 1
1247 3 2 0.4198 26.918705692831672 25.832000199068656 23.231498394639303 0 1 -1
1349 3 3 -0.2161 28.579909560350572 28.73140387696649 24.12662687679807 0 0 0
2188 5 8 -0.19225 28.276599680193293 19.395786545444942 23.60127049130297 1 0 1
1232 8 3 -0.2033 17.44625357731658 25.647924340130395 21.316962901390735 0 0 0
1243 5 8 -0.19225 29.103867979939164 19.370635642193868 21.256640216990874 1 0 1
1163 5 6 0.148 25.627284403382543 21.17762833892121 20.948986737765956 1 0 1
2065 3 8 -0.05925 21.073164429332266 16.992271954994777 24.425681933633772 1 0 1
1338 3 6 0.14525 19.78102465223501 28.399920243022358 23.613979002662333 1 0 1
1156 5 5 0.0306 25.259687028396897 18.520733274916736 21.146477579936484 1 0 1
1978 3 3 -0.1743 17.495425323823625 16.53755128830949 23.551594327521663 1 0 1
205 3 3 -0.2108 18.74199676961058 28.830798398882443 20.662913273084143 1 0 1
25 5 6 0.14525 24.445003513755054 19.478029234042285 16.50386376684144 1 0 1
6 3 8 -0.07199999999999999 18.907086839627343 22.105061195792878 17.323896993482972 1 0 1
221 3 5 0.6308 24.00825318085041 26.76877136948189 21.46445409905391 1 0 1
1158 5 8 -0.1678 25.046490007379095 19.454637095507042 19.903500424233197 1 0 1
1249 3 8 -0.162 28.73582845331032 25.320348705565102 21.563444966673377 0 1 -1
219 3 5 0.0306 24.16425233242836 28.341165974404394 21.922808078272446 1 0 1
2059 3 8 -0.185 19.73981290788084 20.219576707072836 21.370388523980324 1 0 1
123 8 5 0.3486 18.991844601114867 24.1889151089238 22.43468641816683 0 0 0
1341 3 8 -0.1678 23.184286840083303 28.39686333705485 23.16196615669091 1 0 1
1246 3 8 0.1606 27.855977117135602 24.41802234573752 22.11696988601654 0 1 -1
1152 5 5 0.6308 24.076271733023617 18.885429409734336 22.095172210423105 1 0 1
1236 3 8 -0.19225 27.31003468793145 22.918011204952933 24.813112403531836 0 1 -1
10884 3 5 0.3486 29.139626241848006 16.567706516653573 17.665801411550024 1 0 1
1032 3 8 -0.0713 16.813420654953365 21.12507706109858 17.94399418409661 1 0 1
239 3 7 0.0617 29.178037909049216 27.46780887086723 19.840846892115753 0 1 -1
32 5 4 -0.626 24.283244329108125 22.144590356739503 16.742686989924604 1 0 1
120 8 5 0.3486 19.826575376632864 23.805915656963375 23.680626731559865 0 0 0
1040 3 8 -0.162 17.355742969696028 19.89490832238199 21.39639233036289 1 0 1
1347 3 3 -0.2161 26.493235595428075 28.585297410931418 21.257666682287223 1 0 1
224 3 3 -0.2161 25.093057594256642 26.19632789663593 20.89846247727769 1 0 1
1343 3 3 -0.2161 23.7291819572233 25.961167875017058 22.57845392856931 1 0 1
222 3 6 0.148 24.316153764164746 28.348400341761586 19.13267849458447 1 0 1
2062 3 8 -0.19225 20.34526586243544 17.896200052561788 23.621535557280353 1 0 1
122 8 3 -0.1743 18.285732131712656 23.07132854270363 22.088970317920943 0 0 0
10883 3 3 -0.1743 27.85608474522757 16.377498669706917 17.45167264828289 1 0 1
1162 5 8 -0.19225 24.948249166527667 21.735985597168554 19.039845148573942 1 0 1
1042 3 8 0.1606 18.58265202391781 19.825830234983883 22.034802485463537 1 0 1
1346 3 3 -0.2161 26.188736491384226 27.57223220208804 23.192220007699483 1 0 1
1150 5 3 -0.2161 24.16410979315841 20.146717863429178 22.58417450921174 1 0 1
1039 3 7 0.09520000000000001 17.20832384720348 17.89542482726294 19.437461430152936 1 0 1
1048 2 3 -0.1743 19.723763904360684 19.103541592922628 16.921404881521717 0 1 1
233 3 5 0.3926 27.97554809991251 27.40904825787314 17.30005211663829 0 1 -1
1155 5 8 -0.19225 24.77635341789933 19.889573156547286 17.47774834963193 1 0 1
229 3 3 -0.2108 27.104020325629044 27.614224852527023 18.300904468468726 0 1 -1
1248 3 8 -0.185 27.997436198833473 23.089450307270756 21.67110478551355 0 1 -1
10120 3 3 -0.1743 19.44323972029929 26.70127646716856 16.661374763904227 1 0 1
2187 5 6 0.148 26.26199745195615 19.02060271905247 23.93070228721666 1 0 1
1153 5 8 -0.05925 24.747054859213478 19.037750858484337 18.560579153946335 1 0 1
10 3 6 0.139 20.61252004486064 21.120759211966572 19.592776396343506 1 0 1
1157 5 5 0.6308 25.326885182867137 17.001623540028255 20.880231304000603 1 0 1
33 5 2 0.4198 23.53574284599803 22.78394325691162 17.078335911309093 1 0 1
29 5 8 0.1896 24.799442704819032 21.278384917406974 17.71533872628008 1 0 1
1238 5 6 0.148 27.55738946673747 19.24026501519459 19.815628329625802 1 0 1
1244 3 6 0.148 27.33633836517899 22.30225123682279 22.025328187626908 0 1 -1
1045 3 2 0.4198 17.724720771349592 19.565837250850684 23.859060739085226 1 0 1
3 3 8 -0.162 16.234977603492553 21.77134212128809 16.76908639277061 1 0 1
235 3 7 0.09520000000000001 28.480573718098615 25.54543353051116 18.140917409355513 0 1 -1
1036 3 5 -0.1204 16.500875608016646 18.00149989926139 18.65560449193646 1 0 1
1352 3 6 0.14 28.70634942386238 26.402449338577423 21.718713649729942 0 1 -1
124 8 5 0.6099 17.914308234799794 25.371077627351916 22.52552135897615 0 0 0
2183 5 3 -0.2161 26.053094913555007 16.759610237428532 19.800685476366233 1 0 1
1245 3 4 -0.626 27.06383107540369 24.8026414466979 23.229311713162083 0 1 -1
1345 3 5 0.6308 25.69390262418267 28.520614618443634 22.337565163023577 1 0 1
1038 3 7 0.09520000000000001 17.05188142231917 18.3049406048454 17.82113364264419 1 0 1
118 8 3 -0.1743 20.64084700180472 22.85839697007391 23.291893192612704 0 0 0
1041 3 6 0.14 16.45288918383041 19.67551720507008 21.94103122433155 1 0 1
1054 2 3 -0.1743 20.66777624975155 16.794314846435245 18.130095594861007 0 1 1
1237 3 6 0.14525 28.060758310167657 22.290696742240904 24.207017326470336 0 1 -1
1154 5 3 -0.2161 25.93640689216851 16.30206722748547 21.891555236542235 1 0 1
2190 5 6 0.14525 28.36489638588157 19.65247940614662 24.595936237496197 1 0 1
322 3 6 0.148 24.58498182566565 28.33072329329539 24.86442814456276 1 0 1
1251 3 8 -0.07199999999999999 28.834603920561335 22.69934805398659 20.564632164533226 0 1 -1
130 3 6 0.139 28.894493101844894 21.677597116181282 20.2707773119242 0 1 -1
1337 3 8 -0.19225 20.824603165002667 28.478630914083308 23.865523742228504 1 0 1
1342 3 6 0.148 21.401029152635296 28.350775273025953 21.813870428633827 1 0 1
238 3 3 -0.2108 28.624637392343665 28.635652320487857 17.04036725271523 0 1 -1
1240 3 8 0.1896 26.679170742375646 24.133245672198765 24.407227489332602 0 1 -1
206 3 7 0.09520000000000001 16.331752005311436 29.102983205151062 21.889669595963433 1 0 1
208 3 7 0.09520000000000001 17.851949014300125 29.075519022709273 22.82544754041939 1 0 1
2274 5 8 0.1896 29.292691970481535 19.531553783677396 22.629569486842907 1 0 1
10124 3 3 -0.1743 21.579342041472135 28.596532927401235 16.40710505049217 1 0 1
2272 3 6 0.14525 25.2827637715338 25.61065305821623 24.936727289402008 0 1 -1
10886 3 3 -0.1743 29.3371604509376 17.763604785238993 18.184785778283096 1 0 1
1227 8 5 0.3486 18.94777472078448 23.2064728247826 24.916794558667974 0 0 0
2261 8 5 -0.0624 19.92791065048483 18.68192849589708 30.790080791618138 0 0 0
1217 8 3 -0.1923 20.52974779451497 22.880451958034506 29.162777483959097 0 0 0
2168 8 7 0.0617 18.79306343264739 18.68588377882506 30.904881173656996 0 0 0
1223 8 3 -0.1743 20.692084185389355 23.59305001430419 26.545197665948635 0 0 0
2172 8 5 -0.0624 22.189731404843215 17.913533657227234 31.77830896134003 0 0 0
2441 8 3 -0.2161 20.942066305392757 28.071990783141143 28.945390225709925 0 0 0
1233 3 8 -0.05925 27.094648690020012 22.42619075798306 26.138270769668583 0 1 -1
2263 8 7 0.0617 20.165889728487702 17.996717788204286 30.03535738629447 0 0 0
2360 3 6 0.148 27.628884267372623 24.40026560235755 28.216705052938437 0 1 -1
2351 8 5 0.6308 21.022157653098752 26.896941394097677 29.62812623842995 0 0 0
3443 8 3 -0.1743 17.588648404548437 28.33157946697703 31.194564658656574 0 0 0
2998 3 3 -0.2161 28.963440435179837 19.075269488762192 27.159633016004065 0 1 -1
3357 8 5 0.0306 22.047352003836536 26.990206763445123 30.90180123814686 0 0 0
2434 8 3 -0.2033 17.650692387365655 25.26149960631349 31.503822586038453 0 0 0
2994 3 3 -0.2161 27.723820921941392 17.480428717263585 27.454387854093024 0 1 -1
3367 3 8 0.1606 28.506141105712643 25.566933861677537 33.550554833942655 0 1 -1
2258 8 5 -0.1204 20.34796757975225 20.114848614673445 30.2975530598603 0 0 0
1984 3 3 -0.1743 16.310127929825263 18.01553803289601 25.435377561292817 1 0 1
1222 8 3 -0.1743 17.763520351548863 21.8902496678027 27.209526882736135 0 0 0
1331 3 2 0.4198 20.458844159785198 27.88878547523823 26.955105386302062 1 0 1
3277 3 6 0.148 28.245784378196404 23.4672865273505 33.44925540025035 0 1 -1
3442 8 5 0.3486 16.600842437504546 28.011078053346008 32.12232846038173 0 0 0
2361 3 8 -0.05925 27.221027354925166 24.3118881305869 29.2246213777837 0 1 -1
1221 8 5 0.3486 18.794178430031245 22.591232493725933 27.566051526444255 0 0 0
2367 3 8 -0.05925 25.49587160700258 24.17183902627816 26.53048299112123 0 1 -1
1226 3 3 -0.2161 27.862659089766083 21.0731738659134 28.720739228406167 0 1 -1
2362 3 5 0.0306 25.8129643508912 22.366663524825057 28.43052352625235 0 1 -1
2353 8 8 -0.05925 21.052501041128796 24.70482093207758 31.7126393903048 0 0 0
2167 8 8 -0.0713 19.91599329355963 17.059007612637313 32.71042099732852 0 0 0
1335 3 8 0.1896 21.180867854612202 28.55246047131451 25.225980824959798 1 0 1
2184 8 5 0.3486 29.051962542517757 18.904086760863716 32.82608895787691 0 0 0
2358 3 3 -0.2161 23.852503489242213 21.228951549333825 29.38674972607381 0 1 -1
2170 8 7 0.09520000000000001 22.71074965019667 16.29560057633951 33.14494703934811 0 0 0
2265 8 6 0.14 22.14048858252558 20.912258808890584 32.68799238004161 0 0 0
1329 3 8 0.1606 18.74941885897599 28.44948947546935 26.00002271160676 1 0 1
1220 8 3 -0.1743 20.27019131380888 21.546819754824284 25.965691714404223 0 0 0
2175 8 3 -0.2108 25.08528455708698 16.86131608981065 32.28953281861325 0 0 0
2364 3 8 -0.1678 26.269291952171848 23.33009057892135 29.56276243931404 0 1 -1
3271 8 8 0.1896 21.94043566129538 23.513616544657022 33.69443159365378 0 0 0
1231 3 6 0.148 27.562709991826218 21.507799789405702 26.336769920537414 0 1 -1
1235 3 8 -0.1678 26.13728423336321 23.04692028683378 27.020492107234933 0 1 -1
2266 3 3 -0.2161 26.226100834310486 20.072465454090302 27.759949915339007 0 1 -1
2446 8 3 -0.2161 24.269033498447413 27.72918604239844 31.187074186550262 0 0 0
3358 8 8 -0.1678 21.982906054007252 25.77556066039972 31.86771527173298 0 0 0
2066 3 8 -0.19225 19.247443343999926 18.665715049863028 25.553814859631593 1 0 1
2355 8 5 0.6308 23.447298516950717 27.13372870444404 30.282530719185488 0 0 0
3352 8 6 0.148 20.47334161519591 27.131996844892527 33.29660706947932 0 0 0
2531 8 3 -0.2033 17.120003656617822 26.2017720986361 29.6527207294955 0 0 0
2255 8 3 -0.2108 20.84589094463166 20.244025083307207 28.04766658186562 0 0 0
2268 3 8 -0.05925 25.74970331902681 23.195183278226374 30.85929520713161 0 1 -1
2259 8 6 0.14525 20.26649054281863 22.814484360050244 32.365794921444035 0 0 0
2357 8 3 -0.2161 23.960826160240188 25.887829744793308 30.029822179614932 0 0 0
1218 8 3 -0.1923 18.610258945940878 22.282117739709456 29.95321003773614 0 0 0
2256 8 7 0.09520000000000001 21.456240943480015 20.106813267681066 30.356650714115695 0 0 0
2176 8 3 -0.1923 24.717186562217524 19.795239808101506 32.41718492618222 0 0 0
1219 8 5 0.3326 19.456973662669398 22.089603923906715 28.909188812079268 0 0 0
1333 3 6 0.148 18.573831832518803 26.300548256601157 26.5354687017242 1 0 1
2068 3 8 -0.1678 20.883568905324136 16.832326568364977 25.814640466700034 1 0 1
2350 8 3 -0.2161 21.31526870926423 25.935031179643182 28.708640486314152 0 0 0
2257 8 5 0.3926 19.85219116372931 20.55459446362547 28.895253197686145 0 0 0
2174 8 7 0.0617 22.75870971811977 18.745200218460386 31.360792714229028 0 0 0
2171 8 7 0.0617 22.342614731061452 17.224307626665613 30.989115388056042 0 0 0
2163 8 7 0.09520000000000001 20.203686578213286 20.85809176025393 31.102420330171974 0 0 0
2363 3 3 -0.2161 23.65249011860039 23.18527399135289 28.554948372364834 0 1 -1
3174 8 5 0.3926 24.477009894736913 17.51938912362683 33.272320997366464 0 0 0
2359 3 5 0.6308 24.267444072684015 22.0238380842166 28.41000696694564 0 1 -1
1241 3 8 -0.19225 25.712957490635617 24.689295263956737 25.18300352743845 0 1 -1
3354 8 8 -0.05925 20.69176731713177 28.087813675020083 32.74668572322213 0 0 0
1225 8 3 -0.1743 18.332290212006566 23.887210705213768 27.873405354127915 0 0 0
2270 3 6 0.148 25.028563193104425 22.410523181802596 31.151681623119334 0 1 -1
3175 8 5 0.3326 24.952046722976526 19.047528153268924 33.53151901134417 0 0 0
2366 3 8 0.1896 27.189768919162752 25.04996926604084 31.50053720067439 0 1 -1
2264 8 8 -0.162 21.481452469221562 20.458691824720198 33.435757769267894 0 0 0
2260 8 3 -0.2108 18.66234850723813 19.901325721608842 28.554947144493255 0 0 0
1224 8 5 0.3486 19.679269856686737 22.696818542756123 26.282053977498503 0 0 0
1230 3 3 -0.2161 26.192576467138423 20.41442254465248 29.7758709656087 0 1 -1
2267 3 5 0.6308 26.527033862591704 20.974465476114442 28.670938231893743 0 1 -1
3179 8 3 -0.1743 27.103977775571515 18.50932429952852 31.53886655513312 0 0 0
2269 3 8 -0.19225 26.207976193466706 24.079351245889683 31.806758858685086 0 1 -1
1344 3 3 -0.2161 23.909435836986148 21.543561007872302 27.1750974920494 0 1 -1
3097 3 3 -0.2161 22.38763628832058 16.8795896322724 28.439390654700592 1 0 1
2365 3 8 -0.19225 27.631337146488605 25.209072020086325 30.211768424062704 0 1 -1
2182 8 5 0.3486 27.542539646301492 18.51882717696881 32.86548969344154 0 0 0
1332 3 4 -0.626 20.15407313127561 28.480372934286947 26.20397143995043 1 0 1
3366 3 4 -0.626 27.647944018129465 25.89347667321634 32.4670068106495 0 1 -1
2181 8 3 -0.1743 27.427899084314873 17.274324637193274 33.24064836788477 0 0 0
2352 8 6 0.148 20.276162597065774 24.707153978460404 31.00525671070136 0 0 0
2067 3 6 0.14525 18.444005063148268 19.185391367111407 26.06799224126423 1 0 1
1330 3 8 -0.185 18.09300186561575 27.167764818230264 26.179651611208552 1 0 1
1328 3 8 -0.07199999999999999 16.84706036319816 26.94638502512236 25.585654957483406 1 0 1
2069 3 8 -0.05925 19.953157672261128 17.74498350977469 26.381675440268264 1 0 1
2356 8 3 -0.2161 23.612949368704772 27.870558168569403 29.143078930631262 0 0 0
3365 3 6 0.14525 28.250357061166824 26.04759036330666 29.93912353754932 0 1 -1
3101 3 3 -0.2161 28.639454208952223 18.385910864680014 29.17996284433812 0 1 -1
3351 8 3 -0.2161 19.699004027255825 26.679661939681633 29.976975487664163 0 0 0
2169 8 5 0.0516 20.71427277113724 18.258487671245337 32.095003539244615 0 0 0
2368 3 6 0.148 24.702068044078032 24.67388584211083 27.13716630364968 0 1 -1
2071 3 6 0.148 19.715737976158714 17.598245815517156 27.442492311808643 1 0 1
2271 3 6 0.14525 25.949176174464185 23.855636694748817 32.818353755519354 0 1 -1
1229 8 3 -0.1743 18.269592827434792 24.232063203178292 25.30055088361476 0 0 0
2354 8 8 -0.19225 21.016223950650858 23.583112683394628 32.6100572167056 0 0 0
2185 8 3 -0.1743 29.098556178513334 20.167955292166116 32.282104734217626 0 0 0
3355 8 8 -0.1678 21.65775163214898 28.22588920515684 31.750842242840577 0 0 0
2262 8 8 -0.0713 20.625844706079633 19.287001007007515 33.22920287943149 0 0 0
2432 8 5 0.6099 16.591049379237212 25.753791904398582 30.797205697856434 0 0 0
1336 3 8 -0.19225 22.577361796142057 28.49557329639033 25.518867916238037 1 0 1
1334 3 6 0.14525 22.8954461966622 28.433858012173427 26.580405233200928 1 0 1
2173 8 5 -0.1204 22.941881564973123 17.355226720761355 33.1129129962978 0 0 0
3348 3 3 -0.1743 17.967074421195374 21.712640287800067 33.57748463041999 1 0 0
2345 3 3 -0.1743 16.65028739687143 19.580063237069382 32.20238491884863 1 0 0
3281 3 2 0.4198 27.672050796856322 26.813915764836363 32.103259069130694 0 1 -1
2079 3 6 0.148 23.992940879946804 17.01111618464692 26.68465128350646 1 0 1
2373 3 3 -0.2161 28.983443561379424 26.444800138925807 26.397908315195757 0 0 0
3356 8 8 -0.19225 19.96829177599749 29.26057262387808 33.30289839663204 0 0 0
1351 3 3 -0.2161 27.642509978095948 28.719759824267378 26.092122860109896 0 0 0
3360 8 8 -0.05925 22.79727316962127 25.713018908205342 33.08574466600999 0 0 0
2996 3 5 0.6308 28.882068830581485 18.00551690276468 27.927485188670936 0 1 -1
3361 8 6 0.148 23.547382083025425 26.48395554018426 33.255889770515296 0 0 0
3440 8 3 -0.1743 17.27066123913796 27.444187563136012 33.193835852573756 0 0 0
3178 8 3 -0.1743 26.83010091908247 20.5801263791087 33.71369142800985 0 0 0
1216 3 6 0.139 16.44031663270063 25.945938262270992 25.468276654179792 1 0 1
1350 3 5 0.6308 28.741408113613822 29.121915836594624 25.394262037317894 0 0 0
3369 3 6 0.14 29.207346029650672 27.581572773576237 33.70470917762039 0 1 -1
1324 3 8 -0.0713 16.735088440599977 29.354988480580886 25.049526118047726 1 0 1
4358 4 8 -0.07199999999999999 28.159388525630668 23.775558972044625 41.576974806830094 0 1 0
3273 8 4 -0.626 21.836610509628898 22.525943489071906 34.66073308119994 0 0 0
4242 4 5 -0.0624 26.1562015753027 19.559056973077077 41.33754812127867 0 1 0
3265 3 3 -0.1743 17.255274326109678 21.62408672698363 36.54653201687395 1 0 0
4554 3 3 -0.1743 24.976350345068955 27.819415341611112 34.39555096813518 0 0 0
4348 3 4 -0.626 23.780721853917594 27.288556629742907 41.5094469022503 1 0 0
3349 3 3 -0.1743 19.01029022283706 23.47121107105118 35.53536660444769 1 0 0
4464 3 3 -0.2033 25.401311618871798 25.67831585657455 35.97653928180587 0 0 0
4329 3 8 -0.0713 17.79509620305205 27.014437674166214 41.67707487121142 1 0 0
4249 4 7 0.09520000000000001 27.167802190620815 20.62023454285687 39.723903906722995 0 1 0
3165 8 1 -0.07000000000000001 19.804536390431643 18.811497859834294 34.269374822238206 0 0 0
4465 3 8 0.1896 24.676046222880633 27.048379662196382 42.4829230556001 1 0 0
4462 3 5 0.6099 24.744134180193335 26.791917943253132 36.463799882553616 0 0 0
4247 4 7 0.09520000000000001 25.41802094265696 20.600813386518645 39.421679955463325 0 1 0
4352 4 8 -0.07199999999999999 24.88006474054037 24.09969376740357 40.72040971502757 0 1 0
4338 3 7 0.0617 19.485227174961892 24.431111876103913 40.27911266211561 1 0 0
4357 4 8 -0.0713 27.284223883954564 21.615548410123562 42.21255270024978 0 1 0
3160 8 6 0.139 18.31306809604839 16.89782571770039 35.68827830987068 0 0 0
3186 4 3 -0.1743 24.151259465636972 19.73774891596682 37.46808420297877 0 1 0
4147 4 5 0.3486 23.833312198377186 18.674038236726037 38.30717703942085 0 1 0
3170 4 8 -0.19225 20.069730239747315 21.611835448054908 41.91515468998937 0 1 0
3264 3 5 0.3326 17.863037737220512 24.37839459504565 37.42151223642481 1 0 0
4328 3 8 -0.162 16.41195127264478 26.900424348003682 41.75638787878876 1 0 0
4246 4 3 -0.1923 25.48007984484149 17.17764925316515 37.556884092394185 0 1 0
3164 4 5 0.0306 16.613782133761553 20.00648717653563 41.50169655064202 0 1 0
4356 4 6 0.139 27.87776410524866 24.791502556996456 41.32878300000266 0 1 0
4337 3 5 0.0516 18.858546073312716 25.967664393584705 41.68980509934872 1 0 0
3353 3 3 -0.2108 18.866377128425658 26.417052234170022 36.83874893118702 1 0 0
4558 3 3 -0.1743 23.04501093846911 29.180018553850395 35.98116201917583 0 0 0
3180 4 3 -0.2108 26.824445151167346 19.333451970065664 37.759672110553694 0 1 0
4334 3 5 -0.1204 18.9475135441429 26.162807786511433 39.11180874475929 1 0 0
4126 4 8 -0.19225 16.647265383426046 16.621475487694518 39.5408199002708 0 1 0
4339 3 7 0.09520000000000001 19.934393875930414 26.629297276483666 39.17665697852955 1 0 0
4144 4 3 -0.1743 21.743392150546416 16.782247359811876 39.55516051688138 0 1 0
3276 8 2 0.4198 22.217096478488287 22.637448279746486 35.60231215348541 0 0 0
3272 8 8 0.1606 21.21549883652514 21.28882153516927 34.55947856291253 0 0 0
3259 3 5 0.3486 16.7296110047627 22.01329007648823 34.11122115917051 1 0 0
3275 4 4 -0.626 21.63850634080488 22.354078159852772 40.15146279095826 0 1 0
4243 4 7 0.0617 26.934037494106526 18.868092868814962 41.637302260324496 0 1 0
3163 8 6 0.139 19.035860445041 19.21076152087066 36.25448562974515 0 0 0
3267 3 3 -0.2108 20.195197069343198 24.95569107774014 37.59938056280179 1 0 0
3269 8 8 -0.07199999999999999 19.688324150646718 19.61621251781324 35.47521813973697 0 0 0
3362 8 8 -0.19225 22.856608379675862 24.542365867823506 33.93441656951359 0 0 0
4350 4 8 -0.162 23.624407243156337 21.700224743121602 41.432101076853826 0 1 0
4236 4 6 0.14 23.215652364090523 20.72784819955028 41.5415991723507 0 1 0
4345 4 6 0.148 23.0747563569221 24.503572252206347 39.64188286946141 0 1 0
3173 8 3 -0.2108 24.741501913147488 16.84421125803933 34.40427283132394 0 0 0
5164 3 6 0.148 23.775198373404894 16.488566079691257 41.83448537072475 1 0 0
4333 3 1 -0.07000000000000001 18.317581642607333 28.285306962477733 41.695603230235875 1 0 0
4244 4 5 -0.1204 26.252884832008977 19.983326318378626 39.809773990985846 0 1 0
3262 3 5 0.3486 16.85062225795196 22.552635123454444 35.67395636739093 1 0 0
3274 4 2 0.4198 21.601614978392178 22.526992217469587 39.17915498117368 0 1 0
4460 3 3 -0.2033 25.042253956975294 26.787632907308044 37.75822803461372 0 0 0
4148 4 3 -0.1743 21.71378868283746 18.775134488041306 37.64200612139564 0 1 0
4248 4 5 0.3926 26.40233171428531 18.738328476019788 38.862213812704496 0 1 0
4349 4 8 -0.185 23.56099276463489 23.831632250500046 40.34331347770151 0 1 0
3258 3 3 -0.1743 17.347023909219487 24.853018984993252 35.09781470215953 1 0 0
5166 4 3 -0.2161 16.490171958756516 22.33234112615796 42.124218124953856 0 1 0
4145 4 3 -0.1743 22.933578843904154 17.737166852412862 36.39481789112038 0 1 0
4232 4 8 -0.19225 19.84689915571223 20.86592499099378 39.66885844494323 0 1 0
4146 4 5 0.3486 22.678860582923804 17.91305670712078 37.66521682733211 0 1 0
4344 3 8 0.1606 22.43082695623651 27.499911097910676 41.563424003735875 1 0 0
4240 4 5 0.0516 25.979906608278412 20.839378579301506 42.24185894468053 0 1 0
4555 3 5 0.3486 25.16843787636828 28.170197641710953 35.733719624652906 0 0 0
4230 4 6 0.148 18.0099686225345 20.042625896921574 39.13693085668842 0 1 0
4466 3 3 -0.2033 23.456194011065506 26.37703621829101 36.330016413263365 0 0 0
4231 4 8 -0.05925 18.531943891172954 20.52241437937412 39.9347656751132 0 1 0
4346 4 8 0.1606 22.864543644492695 22.626744106099586 40.69990497312777 0 1 0
4351 4 6 0.139 25.40052621389028 25.06358509309233 40.585374969494666 0 1 0
3266 3 5 0.3926 18.992135745164227 25.464048787865195 37.73175844544474 1 0 0
3183 4 3 -0.2108 27.42844384628745 17.953775532393607 39.24576212968337 0 1 0
3169 4 8 0.1896 20.56432426131968 21.600084367669954 40.61048338324734 0 1 0
4353 4 8 -0.0713 24.957013291898186 21.892884851939797 41.76630733841451 0 1 0
4335 3 5 -0.0624 18.796461619168536 25.226210325330555 40.32553469257921 1 0 0
5360 3 2 0.4198 24.17926318224348 27.88375555131593 40.83909606390161 1 0 0
4129 4 6 0.148 17.802677593063823 17.581785590019877 41.10830436989471 0 1 0
4354 4 1 -0.07000000000000001 25.608281832987654 23.102924692336657 41.46720165007204 0 1 0
4342 3 8 -0.162 21.48681855429939 26.457003497233345 41.65620976936525 1 0 0
4343 3 6 0.14 21.788506571595626 25.435025980947167 41.621473024517485 1 0 0
2179 8 3 -0.1743 26.775534846351224 18.86120269134059 35.02256979895292 0 0 0
3167 4 8 -0.1678 18.05379708559255 20.405854147338935 41.20301576559828 0 1 0
4127 4 8 -0.05925 16.9609679699274 17.685839785269046 40.39415462350294 0 1 0
3263 3 3 -0.1923 18.108031526587137 23.32469096404788 38.217287374355635 1 0 0
4233 4 6 0.14525 20.278741755089445 20.740682857459255 38.68589421173566 0 1 0
3177 4 3 -0.1923 24.85395382548687 17.144377834545722 39.717422007881694 0 1 0
3181 4 3 -0.1743 23.396471618027732 19.27814693682363 39.49829308588402 0 1 0
3172 8 7 0.09520000000000001 22.47902513965174 17.771265251994752 34.03301650116177 0 0 0
4142 4 3 -0.1743 20.01454046941158 16.83679763200991 37.372679989711166 0 1 0
4459 3 3 -0.1743 26.5148746885801 28.273007125997083 35.94335329093795 0 0 0
4331 3 7 0.0617 17.80308902041212 24.76783215072333 40.250057113177746 1 0 0
4330 3 7 0.09520000000000001 18.19508103005074 27.035805215054722 39.125533464783295 1 0 0
3270 8 8 -0.185 20.317057068512938 20.879717949771596 35.56348591022585 0 0 0
5364 3 6 0.14525 26.46590942922648 27.584329772629047 41.294696441844 1 0 0
3380 3 7 0.09520000000000001 28.642230184515427 27.352099023946018 37.429066068484666 0 1 -1
4355 4 1 -0.07000000000000001 27.064727052156943 22.892021005324715 41.70141456029988 0 1 0
3168 4 8 -0.05925 18.85199856137865 20.967235808626583 42.25208179582666 0 1 0
3268 8 6 0.148 20.17784606514225 21.53705651545522 36.41901874050258 0 0 0
3176 8 3 -0.1923 24.30945061791897 19.618459703791856 34.581506625711185 0 0 0
3260 3 5 0.3486 17.73077928940037 23.816665695794864 35.90852741623412 1 0 0
4241 4 7 0.0617 25.260658303930704 18.961832044476772 41.30893546694506 0 1 0
3278 3 8 -0.185 28.67505037338035 24.233739107519007 34.05450850651968 0 1 -1
4327 3 3 -0.1923 16.639162602096427 24.902791293027768 37.731267938806184 1 0 0
4245 4 5 0.3326 25.170301832528168 17.94119896377268 38.60415421887447 0 1 0
3368 3 8 -0.162 29.241359468940626 26.62705649055122 34.17792159194029 0 1 -1
4455 3 1 -0.07000000000000001 19.77216305837792 28.174642381655666 41.66536061786934 1 0 0
3359 8 6 0.14525 19.292202305576392 29.145274240591014 34.0718374277956 0 0 0
3350 8 3 -0.1923 17.285095552142053 29.325139177037258 35.523675060298665 0 0 0
4445 8 3 -0.2108 16.264585742192416 28.211114628445273 38.00916858361598 0 0 0
4143 4 5 0.3486 22.18160763214091 16.53276149727754 38.32089626077875 0 1 0
3363 8 6 0.14525 23.404213799694965 24.488457142119252 34.7935306025948 0 0 0