LAMMPS data file via write_data, version 23 Jun 2022, timestep = 6041833

10488 atoms
10 atom types
10940 bonds
13 bond types
20392 angles
18 angle types
31016 dihedrals
58 dihedral types
1640 impropers
7 improper types

16.68162880225988 68.31837119773544 xlo xhi
16.68162880225988 68.31837119773544 ylo yhi
16.68162880225988 68.31837119773544 zlo zhi

Masses

1 12.01
2 1.008
3 19
4 14.01
5 12.01
6 1.008
7 1.008
8 12.01
9 12.01
10 14.01

Pair Coeffs # lj/cut/coul/long

1 0.0988 3.31521
2 0.01 1.1065
3 0.0832 3.03422
4 0.215 3.18995
5 0.1078 3.39771
6 0.0161 2.62548
7 0.0208 2.60018
8 0.0988 3.31521
9 0.0988 3.31521
10 0.215 3.18995

Bond Coeffs # harmonic

1 352.65 1.35
2 232.52 1.538
3 368.44 1.406
4 250.32 1.516
5 277.6 1.485
6 378.57 1.398
7 375.92 1.097
8 529.46 1.012
9 395.72 1.086
10 347.06 1.386
11 378.57 1.398
12 529.46 1.012
13 347.06 1.386

Angle Coeffs # harmonic

1 68.394 120.69
2 86.163 120.95
3 48.787 116.07
4 48.475 119.86
5 66.121 121.11
6 121.555 107.36
7 65.482 120.63
8 46.816 109.8
9 38.96 107.58
10 65.187 127.46
11 48.68 119.88
12 87.947 109.24
13 64.888 111.51
14 65.583 120.77
15 65.183 112.07
16 68.767 120.02
17 65.611 112.24
18 68.877 118.38

Dihedral Coeffs # fourier

1 1 0.795 2 180
2 1 0.12 3 0
3 2 0.22 3 0 1.97 1 180
4 3 0.13 3 0 0.29 2 180 0.11 1 0
5 1 0.245 2 180
6 2 0.08 3 0 0.08 3 0
7 1 1.05 2 180
8 1 0 2 180
9 1 0 2 0
10 1 3.625 2 180
11 1 0.155556 3 0
12 1 3.625 2 180
13 2 1 3 0 0.64 1 180
14 1 0 0 0
15 1 0 0 0
16 1 0 0 0
17 1 0 0 0
18 1 0 0 0
19 1 0 0 0
20 1 0 0 0
21 1 0 0 0
22 1 0 0 0
23 1 0 0 0
24 1 0 0 0
25 1 0 0 0
26 1 0 0 0
27 1 0 0 0
28 1 0 0 0
29 1 0 0 0
30 1 0 0 0
31 1 0 0 0
32 1 0 0 0
33 1 0 0 0
34 1 0 0 0
35 1 0 0 0
36 1 0 0 0
37 1 0 0 0
38 1 0 0 0
39 1 0 0 0
40 1 0 0 0
41 1 0 0 0
42 1 0 0 0
43 1 0 0 0
44 1 0 0 0
45 1 0 0 0
46 1 0 0 0
47 1 0 0 0
48 1 0 0 0
49 1 0 0 0
50 1 0 0 0
51 1 0 0 0
52 1 0 0 0
53 1 0 0 0
54 1 0 0 0
55 1 0 0 0
56 1 0 0 0
57 1 0 0 0
58 1 0 0 0

Improper Coeffs # cvff

1 1.1 -1 2
2 1.1 -1 2
3 1.1 -1 2
4 1.1 -1 2
5 1.1 -1 2
6 1.1 -1 2
7 1.1 -1 2

Atoms # full

2198 5 3 -0.1923 27.221938590756285 29.207348758128667 20.357296478229575 0 0 0
1059 5 5 0.0516 27.74701082147143 22.52605994533478 22.83111819926006 0 0 0
2874 6 3 -0.1743 18.11671244730996 17.193697581144722 24.669400934867234 1 1 0
1065 5 8 -0.185 24.83773908426155 20.20053526593943 25.036889735754624 0 0 0
8 5 5 0.3486 19.66357854705308 18.204083725403454 17.654749568964043 0 0 0
1063 5 6 0.139 23.671891872819334 20.276285438069042 23.21538821541689 0 0 0
9483 5 3 -0.1743 21.780957761571283 19.334046234921278 17.298398837751623 0 0 0
336 4 3 -0.2033 20.515344826823508 24.787054504841173 16.980381888990255 1 0 0
1060 5 1 -0.07000000000000001 25.685159841931224 21.888252400827653 21.733059239500072 0 0 0
2027 5 5 0.3486 20.062917760665886 24.652820494313698 21.251067938497012 0 0 0
2045 5 8 -0.162 26.992960341976627 21.230101059450675 25.055913608485923 0 0 0
1157 5 7 0.0617 28.42216708061983 24.656083474175205 22.616181706050526 0 0 0
1055 5 8 -0.185 24.943018268498612 22.5269560583326 19.443654958149164 0 0 0
2869 6 3 -0.1743 17.32119036910686 18.822139337836 23.53259268503136 1 1 0
2032 5 5 0.3486 23.89368063243411 26.29874195791005 23.58830354850555 0 0 0
1150 5 8 0.1896 27.52684418444919 24.705557894946494 17.872311911462486 0 0 0
1158 5 5 -0.0624 27.93344437745943 23.97686492283266 23.3222532015121 0 0 0
1936 6 3 -0.1743 19.04133798396597 17.928865951623035 21.166878959697577 1 1 0
1297 8 3 -0.2161 19.20751483128003 26.022010177275973 24.871375284973276 0 0 1
1057 5 8 -0.07199999999999999 24.72400716432942 21.817208161713005 20.706188553098603 0 0 0
2127 5 3 -0.1923 25.33754635726394 28.164456129432068 23.847810560964298 0 0 0
2030 5 3 -0.1743 24.586360154238243 25.378541958028038 21.44332239077792 0 0 0
10406 5 5 0.3326 21.893041458529332 17.80942533325241 19.112409491934397 0 0 0
1045 2 5 0.6099 17.64944192338489 29.06877950661074 19.265311288899703 0 1 1
1050 5 3 -0.1743 19.43186473868769 25.75665833615742 21.628884748485824 0 0 0
169 5 8 -0.05925 28.931376687439563 26.60352018262001 18.595413579662768 0 0 0
1159 5 6 0.14 28.137978687967617 23.677956510967256 20.30305780248893 0 0 0
1042 2 3 -0.2033 16.787979146264554 28.03500108964905 19.357317363668248 0 1 1
2028 5 5 0.3486 21.499759977442697 24.765656773770875 21.93921720878935 0 0 0
1051 5 3 -0.1743 20.223028870925184 24.60327685727232 19.884365948616583 0 0 0
96 5 6 0.148 24.160727978939043 22.58301216401053 18.710390617162844 0 0 0
2865 6 3 -0.1743 20.828058203082463 18.36423935553453 23.79258030379597 1 1 0
2026 5 3 -0.1743 21.390949349080806 24.783133628359487 23.26740500331045 0 0 0
1054 5 7 0.09520000000000001 25.83828608504357 24.14055512839048 23.360345154284143 0 0 0
1162 5 7 0.0617 29.444697131870385 21.697739862461304 23.74030872545667 0 0 0
2034 5 5 0.3926 26.603202217497575 26.241027137608505 23.622082727424157 0 0 0
896 5 3 -0.2108 23.95896917775491 18.926149856749657 18.710825653804626 0 0 0
2118 5 5 0.3486 22.30832596010377 26.046741241450086 21.484408295134227 0 0 0
9763 4 3 -0.1743 18.425138233640062 22.885218365766086 17.39208060854475 1 0 0
1164 5 5 -0.0624 29.136674607041037 21.75587967649488 22.682078262765167 0 0 0
2121 5 5 0.3486 23.751659164515196 26.263155843352635 21.973730396202537 0 0 0
894 5 5 -0.1204 24.18567940462953 17.321527235998836 20.484187351424993 0 0 0
2031 5 3 -0.1743 23.66831046354566 25.100876144449245 24.15051495588494 0 0 0
1058 5 8 -0.0713 26.86555218162929 22.532007281362525 21.546762357963672 0 0 0
2029 5 3 -0.1743 22.287184009943633 23.698374873704864 21.63426649807007 0 0 0
891 5 7 0.09520000000000001 23.794438082573667 18.00601187508062 21.20882685173502 0 0 0
892 5 7 0.09520000000000001 25.254024219074168 17.417118123020348 20.396487140467784 0 0 0
2866 6 3 -0.1743 19.694321380122947 20.03409982184402 23.060542632452844 1 1 0
2117 5 3 -0.1743 22.337334253054458 25.99800268320818 20.152888019665674 0 0 0
1161 5 8 -0.162 27.150297978902593 23.21141174299542 20.355285250744267 0 0 0
1156 5 8 0.1606 26.17726486158551 23.178206963229925 19.253148076332167 0 0 0
2188 5 3 -0.1743 23.489270314687005 28.181139022871193 16.823468259372763 0 0 0
2871 6 5 0.3486 18.41228955925723 18.03710580622913 23.62703548123155 1 1 0
1205 8 3 -0.2161 18.378719647750092 28.448272130349324 24.061084474227016 0 0 1
9 5 3 -0.1743 19.327957770753965 19.24861181486332 18.369070617312428 0 0 0
1147 5 8 -0.19225 27.863102996167427 25.705732661968575 18.778213895255362 0 0 0
10405 5 3 -0.1923 21.478746043097274 18.782563457394833 20.00026536200502 0 0 0
1043 2 3 -0.2033 18.1242178888644 29.332826032914195 20.515635438832803 0 1 1
1149 5 6 0.14525 27.26314163117484 25.953573368315915 19.646139347569747 0 0 0
2119 5 3 -0.1743 21.58088567896795 27.15785615487298 21.753972856345094 0 0 0
316 8 6 0.148 17.042085658793013 25.871448260561433 23.47131013948013 0 0 1
1064 5 8 -0.07199999999999999 24.558342510475477 20.616443158106108 23.74998376807258 0 0 0
1049 5 3 -0.2033 18.05744158463474 23.335373364803285 21.2787311713498 0 0 0
2875 6 3 -0.2033 17.989241134613895 21.401856458982166 24.72547047999373 1 1 0
1052 5 3 -0.2108 26.826101855783364 26.531403851041013 22.29650628066012 0 0 0
2124 5 3 -0.1743 22.931123039585216 27.105778738955895 24.10701534446461 0 0 0
2023 5 3 -0.2033 19.947580325260628 22.27977576652223 21.346910527047555 0 0 0
1061 5 1 -0.07000000000000001 25.548358592653834 21.37037404526678 23.072150547955026 0 0 0
801 5 6 0.139 28.20226181106858 17.291198935669414 24.2949377887968 0 0 0
2196 5 3 -0.1743 23.65163028188475 29.24102771860998 19.24914288732663 0 0 0
1151 5 3 -0.2108 27.642319311211587 26.842675704494933 24.27632436066193 0 0 0
1056 5 6 0.139 23.86229479740267 21.16400541771602 20.75667699520192 0 0 0
2128 5 7 0.0617 28.493753985330187 23.86290720131008 24.29931922291266 0 0 0
895 5 5 0.3926 23.455091747087145 17.691259904771428 19.08421880042416 0 0 0
2190 5 5 0.3486 24.349169031908815 29.244989549297294 16.909216312028637 0 0 0
1062 5 8 -0.0713 26.77495495794197 21.68610536159927 23.73914135098448 0 0 0
2867 6 5 0.3486 19.667127348782945 19.011533806875917 23.969017925358262 1 1 0
1153 5 4 -0.626 26.462198978272845 23.844322535830287 18.116403938415615 0 0 0
2192 5 3 -0.1743 25.38052884779526 28.02965778331103 18.692962208392867 0 0 0
10404 5 5 0.3486 21.276368145045403 18.139094920122403 17.661353747769784 0 0 0
890 5 3 -0.1743 19.18261071448511 17.124733223525883 18.339724004555585 0 0 0
1048 5 3 -0.2033 19.218548030187314 23.37372512501871 23.138559509270095 0 0 0
1154 5 2 0.4198 25.697687290374507 23.838780130513634 17.4759721521553 0 0 0
883 5 3 -0.1743 16.735042953128364 18.351834196943415 18.40229269239817 0 0 0
1053 5 5 -0.1204 26.623884593130434 24.65711841753738 23.924476711800928 0 0 0
2033 5 5 0.3326 25.288899752514894 26.920942779842147 24.14147501869113 0 0 0
2025 5 5 0.6099 19.30531930495058 23.38423145955903 21.76537470731304 0 0 0
2122 5 3 -0.1743 24.22899086913254 27.438520087765852 21.42075321346966 0 0 0
167 5 6 0.148 29.183020569998934 27.325879900698027 19.359089776106142 0 0 0
2037 5 7 0.09520000000000001 26.578315193145436 24.39232422478947 24.98391730896254 0 0 0
1938 6 5 0.3486 18.739294478193273 17.158729942119905 22.24950464567835 1 1 0
2133 5 7 0.0617 28.786483219469154 20.72868851452458 22.369745605571644 0 0 0
9684 4 3 -0.1743 17.863508596130945 25.751832076994923 17.56631628134507 1 0 0
703 5 6 0.14525 27.751315445403378 16.80436219920971 18.63652653067188 0 0 0
798 5 8 -0.07199999999999999 27.89253897460157 16.77570913593981 23.335266070182186 0 0 0
2194 5 5 0.3486 24.78594228210404 29.266773120185977 18.486222231723943 0 0 0
973 2 3 -0.2033 18.700850359838448 28.6957670942632 18.563258185012696 0 1 1
91 5 3 -0.2161 29.48538744771689 29.22521254416473 17.077014836564306 0 0 0
10409 5 3 -0.2108 23.83062825643113 16.75396502376299 18.18591573083764 0 0 0
10403 5 3 -0.1743 21.764132363563427 17.30876096766432 16.731121781477597 0 0 0
2116 5 7 0.0617 27.397582224662244 29.438844751139627 23.196431471903026 0 0 0
10408 5 3 -0.1923 21.28907053781417 16.698707572740652 19.574398415802648 0 0 0
173 5 8 -0.19225 28.300881329457585 24.70346599624853 16.713117866790437 0 0 0
2040 5 8 -0.19225 27.493424801952678 21.435093597942874 28.271747446015056 0 0 0
1299 8 5 0.6308 18.431151165867803 26.024548189987847 25.91366051999015 0 0 1
3070 2 3 -0.1923 25.07226968056728 27.8615152513675 31.85007553841467 0 1 0
2102 4 6 0.14525 18.109307157534506 24.746852802413624 29.059786976628086 1 0 0
2103 4 8 -0.05925 18.014199163348273 24.51623707714912 31.13464275789302 1 0 0
2981 2 3 -0.1743 22.423529186663444 28.162114882189726 32.43703117418945 0 1 0
2984 5 3 -0.1743 22.958092169959027 20.72736439949187 27.86113943672565 0 0 0
2101 4 6 0.148 18.746328289510945 25.324558343053717 31.275506868253768 1 0 0
2994 5 8 -0.1678 28.519086974622134 20.23054879495147 32.98637224249389 0 0 0
2899 5 7 0.0617 21.537206167461598 17.652700028922208 33.139246425606984 0 0 0
1949 5 3 -0.1743 23.521299728402646 21.724954952988583 30.650428549447184 0 0 0
2901 5 7 0.09520000000000001 23.673269110248388 16.90778768335132 32.39164846915751 0 0 0
980 5 6 0.148 24.177457129466177 19.543579125157375 25.6061513063093 0 0 0
2880 5 3 -0.2033 24.712510401121158 22.625742094716337 28.066538937293558 0 0 0
981 6 3 -0.2033 29.31364157486116 17.2551270178972 26.78466653169621 0 1 0
1956 5 3 -0.1743 24.167224043686357 19.179792988473096 29.74580961457604 0 0 0
1842 5 8 -0.07199999999999999 25.42558575754131 16.848365897488367 25.503484183057616 0 0 0
2212 5 7 0.09520000000000001 29.147655482685934 28.88909439147111 26.76502851307017 0 0 0
3073 2 3 -0.2108 23.957110150802343 24.557554077188303 32.376266075421384 0 1 0
1303 8 8 -0.05925 17.881425925331246 28.050274674481493 28.471329497523485 0 0 1
1298 8 3 -0.2161 19.304576245977746 25.967040160050196 26.926023969983564 0 0 1
3001 5 8 -0.05925 27.904280770231153 19.379893554005818 30.245521155765815 0 0 0
2035 5 3 -0.1923 25.266049718583304 26.852260993981183 25.521815333173116 0 0 0
1208 8 5 0.0306 17.554203493937354 27.29583336311199 25.966697154468037 0 0 1
1955 5 5 0.3486 23.091397993801756 19.296909034766465 30.49142958263586 0 0 0
2019 2 3 -0.1743 21.158321079971536 28.212998900561015 29.952691454349356 0 1 0
2990 5 3 -0.2161 28.626594735677344 23.029244079962254 32.060770546200956 0 0 0
2015 2 3 -0.1743 22.715467135543253 28.587055616382187 26.84015788693597 0 1 0
2046 5 6 0.14 27.936234330542852 21.355906472962285 25.557240465368423 0 0 0
2985 5 3 -0.1923 21.90558340115269 18.029714820183987 28.757484043080225 0 0 0
2024 5 3 -0.1743 23.51900900460669 19.249941093855846 31.787161747258907 0 0 0
1952 5 5 0.3486 22.564716267903663 20.802430578633203 30.285250853254475 0 0 0
2047 5 2 0.4198 25.79746692084096 18.916141241537566 27.009029032219402 0 0 0
2878 5 3 -0.1743 22.88028423870677 24.107459317446832 29.510150888230413 0 0 0
2126 5 3 -0.2108 28.646062515568104 28.493763667516443 29.026540906617203 0 0 0
1957 5 5 0.3326 22.08911519936857 18.214686624797835 30.10639094997827 0 0 0
1843 5 6 0.148 24.114060048546982 16.89647300550156 27.268197939028706 0 0 0
2997 5 8 -0.1678 28.51198605234174 20.645120079802794 30.468228529127863 0 0 0
2983 2 3 -0.1743 21.923613366928368 26.219890711291495 31.461936504083038 0 1 0
2022 2 3 -0.1743 22.83931794113157 27.18335035722547 29.043228274095682 0 1 0
2112 2 5 0.3486 23.206224148002878 29.491355859474314 29.739683507165697 0 1 0
2883 5 3 -0.1743 20.946243552134955 20.34851412232991 28.608012335293157 0 0 0
2912 5 8 -0.05925 27.055264920838248 20.491379882235233 32.974629443991105 0 0 0
2044 5 4 -0.626 26.27169528572862 19.805426076463092 26.912861632556883 0 0 0
2039 5 6 0.14525 27.165391754497854 22.22795297258194 27.648567586332163 0 0 0
2877 5 3 -0.2033 24.645256930445854 24.473370889616167 27.155575493081777 0 0 0
3074 2 3 -0.2108 25.765450743939354 25.412477151582834 32.84871109910394 0 1 0
2881 5 5 0.3486 22.61290321708651 23.73582639436726 28.214102689037567 0 0 0
2884 5 5 0.3486 22.070965781880474 21.085111265375815 28.826892364118752 0 0 0
2879 5 5 0.6099 23.894007495638313 23.411587911551006 27.410366211482287 0 0 0
1959 5 3 -0.1923 20.866340992844876 18.34938348850948 30.63467158729385 0 0 0
2042 5 8 -0.19225 27.14915438723154 19.1397228883504 29.065632218274594 0 0 0
1960 5 6 0.14525 26.656055190159496 18.16215373931545 28.924341237664116 0 0 0
2038 5 8 -0.05925 28.333049045531 21.633232350206285 29.421258729067347 0 0 0
2913 5 6 0.148 26.63458400172939 21.103245008934092 32.140911144447465 0 0 0
1948 5 3 -0.1743 21.60116823207315 20.99611256057957 31.114405904761476 0 0 0
2982 2 5 0.3486 22.78266611255917 27.337756233181622 31.394284424533055 0 1 0
3059 4 8 -0.1678 17.53261793382391 23.810280304083655 32.29696199523924 1 0 0
3072 2 5 0.3326 24.250682197975692 26.811509209098304 31.633221914961542 0 1 0
3071 2 3 -0.1923 24.721421526772563 26.236043151172655 30.509947376657248 0 1 0
2886 5 3 -0.1743 20.976907041243482 22.383501779428066 27.20912955103295 0 0 0
2924 6 3 -0.2033 28.957410073551227 16.90681026563922 32.894343120076556 0 1 0
3075 2 5 0.3926 24.476537433837798 25.74198275730404 32.7761225955401 0 1 0
2011 4 3 -0.1743 17.866689851507044 18.435304134857418 31.732046261993187 1 0 0
3852 6 3 -0.2033 18.544789695068932 21.17243775733095 26.829755603555164 1 1 0
2885 5 5 0.3486 21.580289514919635 22.549348138905174 28.43195021121143 0 0 0
2915 5 6 0.148 27.928193833126365 18.59516642644956 30.9958940797178 0 0 0
2887 5 3 -0.1743 20.56140684028047 22.900426886028214 29.25380351896342 0 0 0
1302 8 6 0.148 18.752504980165888 28.58186039733426 28.20995489625477 0 0 1
2041 5 8 0.1896 26.969178172483048 20.171911118596892 28.064516114320448 0 0 0
2104 4 8 -0.19225 17.68025274582774 24.141704478006567 29.881451923667115 1 0 0
3057 4 3 -0.2161 19.701077564117732 22.436043893412325 33.34632134711214 1 0 0
2868 6 3 -0.1743 20.79376486229596 20.386993872049615 25.376083407049684 1 1 0
2882 5 3 -0.1743 21.98456831602875 24.720561505697432 27.600797366294003 0 0 0
2020 2 5 0.3486 22.53569829530053 28.046670007353406 30.01673974410894 0 1 0
3064 4 3 -0.2161 20.07089288146854 25.21215259268451 33.328168271557416 1 0 0
2996 5 5 0.0306 29.451947686670778 20.800589399146833 31.8419231746414 0 0 0
1300 8 3 -0.2161 17.723757462520815 24.90029541122962 25.970833339516254 0 0 1
3066 4 3 -0.2161 18.261723042945455 26.45003477147967 33.51871745888851 1 0 0
2870 6 3 -0.1743 19.813455338842168 18.616604997564526 26.353508119941235 1 1 0
2036 5 6 0.148 28.92028066186724 22.594937593741584 29.511051554848336 0 0 0
2215 5 5 0.3926 28.017636538741325 29.55682942926213 28.506046004741275 0 0 0
1211 8 8 -0.1678 17.08143457415508 27.45348464267614 27.48556153583975 0 0 1
2262 8 8 -0.19225 17.565602711861015 28.024001753725926 29.80678633047473 0 0 1
2264 8 6 0.14525 18.16428733327328 28.57922115672205 30.504177988623645 0 0 1
2980 5 3 -0.2033 23.637036091029696 22.858628167709927 26.195708834253864 0 0 0
2872 6 5 0.3486 19.67068788135745 19.6096515203371 25.38349310972555 1 1 0
3096 2 8 -0.185 28.925126462294205 28.68615309170761 33.31912760266488 0 1 0
2043 5 8 0.1606 26.04546387391678 20.447590374335483 25.682835459406505 0 0 0
1845 5 6 0.139 26.30838512231996 17.11891244182595 25.995351134285386 0 0 0
2216 5 3 -0.2108 26.819218114641053 29.180508182281592 28.325160659591354 0 0 0
1206 8 3 -0.2161 19.758703657211342 28.48786576845793 25.895287291319242 0 0 1
2785 6 3 -0.2033 17.32847255576261 19.71489448285844 25.98752780551994 1 1 0
1945 4 3 -0.1743 17.886412449411093 17.701116850729132 29.68392284994787 1 0 0
1839 5 2 0.4198 21.687728654888396 17.045404883437737 26.813716763320357 0 0 0
2021 2 3 -0.1743 24.500561655576888 29.33373640303983 29.707404041147612 0 1 0
2876 6 5 0.6099 18.394493775772084 20.519474214261425 25.73482499660237 1 1 0
2012 4 5 0.3486 17.167652564762356 17.650768290091833 30.837127421063208 1 0 0
1207 8 5 0.6308 18.47319334588342 28.48293658455588 25.42772143145473 0 0 1
985 6 3 -0.2033 29.42088376805345 19.430996465623263 26.17951696917189 0 1 0
2186 4 2 0.4198 16.921897220383048 23.173642799854207 27.643718155761746 1 0 0
2892 5 5 0.3926 22.55668565426501 16.72894028798491 30.600335531377112 0 0 0
1252 5 7 0.0617 27.417012304563706 29.11034762249553 25.502807001689604 0 0 0
3095 2 8 -0.07199999999999999 28.818836929105046 27.317255455653957 33.66837790968465 0 1 0
2183 4 8 0.1896 16.76991916627845 23.13902699674906 29.692400754818003 1 0 0
3060 4 5 0.0306 18.009440662270418 24.08099684591231 33.845823906627224 1 0 0
3093 2 8 0.1606 28.026482201574936 29.56046698391577 33.87618046224479 0 1 0
2891 5 5 -0.0624 20.87708872199971 16.8506885393446 35.512346515018564 0 0 0
3864 5 5 0.3926 18.426471776851383 17.56561670408304 35.67060506556331 0 0 0
4042 2 7 0.09520000000000001 27.777989069786504 28.057037208301544 37.76164254612941 0 1 0
5126 8 3 -0.2033 20.951114287034805 28.907593236819025 40.086941008182066 0 0 1
4812 3 8 -0.05925 29.520691327137307 20.109428739405306 40.448238667035135 0 0 0
4133 8 3 -0.1743 19.322798231394316 29.09042950627205 35.54754474708406 0 0 1
3086 2 8 -0.162 25.760125086710225 24.51925489279153 36.385418617059955 0 1 0
3855 5 5 0.3486 19.23482928461245 16.895112118916877 39.00047719406397 0 0 0
4983 2 2 0.4198 20.559968511258667 27.442926005661818 41.71479053232588 0 1 0
2988 2 8 -0.185 27.576463266833226 23.15049712126346 35.392157490836624 0 1 0
4881 2 6 0.14525 20.680002824982807 25.948256908896894 40.28790356541702 0 1 0
3857 5 3 -0.1743 18.049113164936323 18.966929215527145 39.2305248449763 0 0 0
2986 2 8 0.1606 26.35720557649457 23.248535867986135 36.140018698355675 0 1 0
4889 2 5 0.6308 21.013146180435623 20.860339575675955 41.27765796693912 0 1 0
3963 2 6 0.14525 24.0471616642871 20.187307981733895 37.38018442304105 0 1 0
4886 2 3 -0.2161 21.347210797913778 19.533349810051906 41.08491002490676 0 1 0
3861 5 5 0.3326 18.55774448501894 18.500338621517045 36.93090781462044 0 0 0
2905 5 8 0.1606 25.296349222305743 17.33659696468698 35.60316413575306 0 0 0
4809 3 6 0.148 23.88906506841665 17.857261491133816 38.324430226224976 0 0 0
3958 2 8 0.1896 24.98994154652548 21.97678591853828 37.83837426436004 0 1 0
3078 2 7 0.0617 23.632005640307288 27.44828582891403 35.72289614317629 0 1 0
3854 5 3 -0.1743 20.518913078654784 17.352374992601526 38.925523409047685 0 0 0
3090 2 8 -0.162 26.984425268898953 29.1192151514185 34.778416070458164 0 1 0
3952 3 3 -0.1743 17.39874488035224 23.293351958549923 40.3688700133536 0 0 0
3084 2 7 0.0617 24.791564181446198 27.205938275224675 37.85380883311419 0 1 0
3051 4 3 -0.2161 18.162301276648815 21.842670577840295 34.7937997860147 1 0 0
2903 5 6 0.14 23.62456994622763 18.341526380995006 34.733295518223755 0 0 0
2904 5 8 -0.162 24.055016051966085 17.369984040721484 34.99568440838928 0 0 0
4135 3 3 -0.1743 17.629275267845227 25.582360892804793 41.922470873885345 0 0 0
4810 3 8 -0.185 24.479721335976706 17.11588067802266 38.86659587746108 0 0 0
3866 5 3 -0.2108 17.158322919147317 17.073296618188095 35.56812154409168 0 0 0
3953 2 6 0.148 24.25856224786709 23.80145431921298 40.657310001888916 0 1 0
3962 2 6 0.148 22.72592372319906 20.055579607993714 39.368174445030974 0 1 0
4891 2 8 -0.1678 21.8577796120287 23.14665620617976 41.80177543348988 0 1 0
2909 5 8 0.1896 26.72784342162538 19.257340744306653 35.03419253483393 0 0 0
5700 3 6 0.14 27.53617600071941 16.976454340816673 40.38328800159192 0 0 0
3960 2 8 -0.05925 23.244012152369656 20.928821086128604 39.15481616437587 0 1 0
4883 2 8 -0.19225 20.95773935999986 25.25480852396218 41.142123159732336 0 1 0
4884 2 3 -0.2161 20.270214426731076 20.8488797504479 42.424190716707834 0 1 0
4887 2 6 0.148 21.220280994055997 23.61828751257029 39.74349905085 0 1 0
4055 2 3 -0.1923 24.898501395275307 26.310336460338632 40.23974932857133 0 1 0
4130 8 3 -0.1743 19.59156217589422 28.90085508228367 37.971954625534856 0 0 1
3959 2 4 -0.626 25.793497377324563 22.110911193170182 36.66279831811568 0 1 0
3058 4 8 -0.1678 16.76246314206407 24.22378971920072 34.73367084618441 1 0 0
3085 2 5 0.0516 25.730371122081664 27.0809087892239 35.82246086360856 0 1 0
4050 2 5 0.3326 26.13997941885888 26.742327871148902 40.667955630887306 0 1 0
3860 5 3 -0.1923 17.581530934687738 19.440076853537374 36.697798511358876 0 0 0
4043 2 7 0.09520000000000001 27.405463977280952 26.44876463953959 38.26037607478524 0 1 0
4896 2 5 0.6308 23.274448637495748 20.962343276668456 42.47157270686634 0 1 0
3091 2 1 -0.07000000000000001 27.473256283716964 25.594128076347637 35.101341526711195 0 1 0
3862 5 3 -0.1923 19.77106365643844 19.092143327001867 37.041442059654486 0 0 0
2989 2 6 0.148 28.08766069055076 22.20256764917042 35.262597802661766 0 1 0
3961 2 8 -0.19225 24.107499368424257 20.96620547249234 38.07219231567896 0 1 0
3161 4 6 0.148 17.581484569758654 23.47502846245449 36.64406361965035 1 0 0
4872 3 3 -0.2108 17.494047291158815 20.958049790619665 41.4738294021639 0 0 0
2987 2 2 0.4198 25.910970974137683 21.187755462140146 36.21605717303878 0 1 0
4814 3 8 0.1896 27.176748088314508 19.655792547956548 39.70581215439405 0 0 0
3055 4 5 0.6308 18.923143824811348 22.853933532845307 34.27122951556467 1 0 0
3088 2 7 0.0617 25.339627854875147 28.622156944921297 37.3343181273526 0 1 0
4811 3 8 0.1606 25.758970190604515 17.5232781464231 39.353534243735574 0 0 0
2889 5 7 0.0617 21.02786105766038 17.83604027751394 35.217861771043374 0 0 0
3097 2 6 0.139 28.990914872721234 24.353934976434083 34.2197182957825 0 1 0
3087 2 8 -0.0713 26.303268485237123 25.653039748137303 35.8042542184888 0 1 0
3878 5 6 0.14525 28.567635507125736 18.57349043882942 35.9038073023573 0 0 0
4045 2 5 -0.1204 26.970223466230973 27.44718667686853 38.188334923589714 0 1 0
4052 2 3 -0.1743 24.611951325256342 25.023985386758017 42.415407134689815 0 1 0
4818 3 8 -0.19225 26.753246408211883 20.8361022246172 40.333574916797886 0 0 0
2911 5 8 -0.19225 26.229722138366945 20.036083825295865 33.98078733562373 0 0 0
4813 3 8 -0.19225 28.564464136016852 19.316808780025358 39.692663381277924 0 0 0
4220 8 3 -0.2033 22.877035396941793 28.989924076786952 39.22536098838481 0 0 1
4815 3 6 0.14525 28.83216432702543 18.45417825283051 39.15358119257838 0 0 0
4907 3 8 -0.05925 27.65439234142167 21.61853599267272 40.98086045659951 0 0 0
3082 2 6 0.14 24.70871663494404 24.59106924977445 36.81342618141059 0 1 0
4895 2 3 -0.2161 23.856950443586705 19.79418953507767 42.07490469788978 0 1 0
4888 2 8 -0.05925 21.416970998028642 24.014595077613855 40.7587811515406 0 1 0
4047 2 5 0.3926 26.771088252702732 27.857285251339576 39.70027107423405 0 1 0
4819 3 2 0.4198 25.378240875058964 19.445775582904698 38.9569332865219 0 0 0
4046 2 3 -0.1743 25.002046763564223 28.139299632820226 42.14751767725711 0 1 0
3083 2 5 -0.0624 25.603325694746694 27.595034158186735 37.29562563013657 0 1 0
4044 2 3 -0.2108 28.017831045043 28.047246080116736 40.16309458452557 0 1 0
4030 3 3 -0.1743 16.955182670900253 25.696160440348734 39.25657038081255 0 0 0
3957 2 8 -0.1678 23.264055733675832 21.84371329626151 40.18557116585605 0 1 0
4806 2 3 -0.2161 20.260553551949304 21.25801884341756 40.197224599733836 0 1 0
3094 2 8 -0.07199999999999999 28.10125762266935 24.367181038801824 34.824967890220854 0 1 0
3955 2 8 -0.05925 24.121915428304955 22.947972164109324 39.929750231765496 0 1 0
3949 5 3 -0.1743 18.901016674779793 17.744954425568555 41.25972660953898 0 0 0
3956 2 8 -0.19225 24.954381129507077 23.014256152035173 38.828036976000945 0 1 0
3879 5 8 -0.19225 28.136391955513076 19.03881515267502 35.06222194419707 0 0 0
3863 5 3 -0.2108 18.490332553814405 18.387460546216136 34.57508303343248 0 0 0
4816 3 4 -0.626 26.18490723022004 18.848382281047417 39.09135767628953 0 0 0
4892 2 5 0.0306 22.368043047267214 21.696904761390414 41.41888689202277 0 1 0
3063 4 3 -0.2161 19.202912475363426 25.595601320919158 35.330794846978144 1 0 0
3080 2 5 -0.0624 24.391087521879413 27.1612336838388 35.0466304855165 0 1 0
4049 2 3 -0.2108 26.054611332800306 28.983124601081595 39.8216489337552 0 1 0
4905 3 8 -0.1678 29.065264149572457 21.287350157695833 41.04622086404253 0 0 0
3877 5 2 0.4198 26.460062957074914 18.37554092885707 36.736101115387314 0 0 0
4817 3 6 0.14525 25.688727714731836 21.002920903734314 40.46184227590625 0 0 0
3054 4 3 -0.2161 19.71639584089817 23.153808233792212 35.34734688035189 1 0 0
3954 2 6 0.14525 25.807261645519404 23.69759368355586 38.873754596254805 0 1 0
2907 5 4 -0.626 25.919737242028155 18.550514177279034 35.90917414334186 0 0 0
4048 2 3 -0.1923 26.948638517602 25.687110575476968 40.624931644014794 0 1 0
3092 2 1 -0.07000000000000001 27.848451500762607 26.867808248747508 34.5427891073263 0 1 0
3089 2 8 -0.0713 26.84680447267269 27.764625992642742 35.0468261282008 0 1 0
4908 3 6 0.148 27.25974025503294 22.50787550481104 41.49920893021993 0 0 0
3858 5 5 0.3486 18.222315515371594 17.933693487355562 38.34078707676266 0 0 0
3079 2 7 0.09520000000000001 22.66121978760532 25.947080021183314 34.11392087848171 0 1 0
3081 2 7 0.0617 24.4033979047153 27.934301415011667 34.32315840752909 0 1 0
3077 2 7 0.09520000000000001 24.09119072659665 25.010629142969208 34.679396225958016 0 1 0
4131 8 5 0.3486 20.54572714694163 29.53800025816841 37.33210961781289 0 0 1
4134 8 3 -0.1743 21.43228215613121 28.555202629694172 36.99459613747585 0 0 1
2991 5 8 -0.05925 29.043494179304204 19.597660900788078 34.10671585259355 0 0 0
4035 3 3 -0.1743 17.699663791980306 27.90419126135886 40.553316405789786 0 0 0
3053 4 8 -0.05925 16.72860038175455 23.86674457602161 36.16874354008458 1 0 0
4051 2 5 0.3486 25.92383654558717 27.163408085821256 42.127177995437194 0 1 0
3859 5 3 -0.1743 17.034453064576535 17.419936538457346 38.235988828919304 0 0 0
3062 4 5 0.6308 18.91336756290337 25.35360190131495 34.01303245381817 1 0 0
3076 2 5 -0.1204 23.79590844389758 25.942448338351205 34.17831720555914 0 1 0
4885 2 8 0.1896 20.898164281600227 25.72597453177235 42.456051808280776 0 1 0
2908 5 6 0.14525 25.175927105505167 20.261600282261846 33.99338120749067 0 0 0
5878 2 7 0.0617 20.094500358711095 26.768032896824423 49.49920126230234 0 1 0
4054 2 5 0.3486 25.469042827466367 25.9083010691595 43.065244376976814 0 1 0
5876 3 8 -0.162 17.688330618834915 19.085499795833407 47.03758168834517 0 0 0
6836 3 8 -0.19225 26.500114854954603 18.592377759726762 50.473594964398 0 0 0
5875 3 6 0.14 17.679403656427283 20.05872084816006 47.60848412245821 0 0 0
4875 3 7 0.09520000000000001 17.699910368541865 20.495206377070108 43.75532398444361 0 0 0
5044 3 3 -0.1923 17.66190305611758 23.19069577064252 43.02561404540013 0 0 0
5892 3 8 -0.1678 25.78976885529123 20.557917327912573 49.27152288554282 0 0 0
6829 2 3 -0.2108 18.615489302458776 24.56205477768678 47.2435528820604 0 1 0
5893 3 5 0.0306 24.902422974062205 21.234601710913793 48.0736843947228 0 0 0
5887 3 8 -0.19225 21.665940564352518 19.12154963494972 47.03498140815297 0 0 0
6834 3 6 0.148 25.036561391620218 18.582615427474533 48.94766198314588 0 0 0
6919 2 6 0.14 18.747971043762917 28.948325631764135 50.14711570177733 0 1 0
6825 2 5 -0.1204 20.78163797401954 25.505766316315075 47.88868585275081 0 1 0
4984 2 3 -0.1743 23.503471520437362 26.90695979584302 43.96173621529314 0 1 0
5874 2 5 0.0516 19.466295987332064 27.795939181732805 47.630593709786304 0 1 0
5877 2 3 -0.1923 18.73367071227096 25.225432813515454 50.15375100255945 0 1 0
5630 3 3 -0.1923 29.325151621146745 16.828491087394475 43.637986019493376 0 0 0
4991 2 5 0.6099 25.236358309914138 28.7674514124084 47.59232933859717 0 1 0
4992 2 3 -0.1743 26.531819150378528 26.643553924344026 46.012484589596 0 1 0
6840 3 8 -0.19225 27.45879383857815 20.74209674765277 51.02777638640626 0 0 0
4056 2 3 -0.1743 26.57273031819399 25.18960476172466 43.29381573989293 0 1 0
5769 2 3 -0.1923 20.36531513578689 23.790382756005254 50.28586537706571 0 1 0
5990 2 8 -0.0713 20.005538307786825 28.07657864623703 46.20228477300469 0 1 0
6005 3 3 -0.2161 23.758472682817455 23.215536558462585 47.199362386223854 0 0 0