LAMMPS data file via write_data, version 23 Jun 2022, timestep = 6042000

11286 atoms
10 atom types
11771 bonds
13 bond types
21938 angles
18 angle types
33362 dihedrals
58 dihedral types
1762 impropers
7 improper types

13.592004659943605 66.40799534004235 xlo xhi
13.592004659943605 66.40799534004235 ylo yhi
13.592004659943605 66.40799534004235 zlo zhi

Masses

1 12.01
2 1.008
3 19
4 14.01
5 12.01
6 1.008
7 1.008
8 12.01
9 12.01
10 14.01

Pair Coeffs # lj/cut/coul/long

1 0.0988 3.31521
2 0.01 1.1065
3 0.0832 3.03422
4 0.215 3.18995
5 0.1078 3.39771
6 0.0161 2.62548
7 0.0208 2.60018
8 0.0988 3.31521
9 0.0988 3.31521
10 0.215 3.18995

Bond Coeffs # harmonic

1 352.65 1.35
2 232.52 1.538
3 368.44 1.406
4 250.32 1.516
5 277.6 1.485
6 378.57 1.398
7 375.92 1.097
8 529.46 1.012
9 395.72 1.086
10 347.06 1.386
11 378.57 1.398
12 529.46 1.012
13 347.06 1.386

Angle Coeffs # harmonic

1 68.394 120.69
2 86.163 120.95
3 48.787 116.07
4 48.475 119.86
5 66.121 121.11
6 121.555 107.36
7 65.482 120.63
8 46.816 109.8
9 38.96 107.58
10 65.187 127.46
11 48.68 119.88
12 87.947 109.24
13 64.888 111.51
14 65.583 120.77
15 65.183 112.07
16 68.767 120.02
17 65.611 112.24
18 68.877 118.38

Dihedral Coeffs # fourier

1 1 0.795 2 180
2 1 0.12 3 0
3 2 0.22 3 0 1.97 1 180
4 3 0.13 3 0 0.29 2 180 0.11 1 0
5 1 0.245 2 180
6 2 0.08 3 0 0.08 3 0
7 1 1.05 2 180
8 1 0 2 180
9 1 0 2 0
10 1 3.625 2 180
11 1 0.155556 3 0
12 1 3.625 2 180
13 2 1 3 0 0.64 1 180
14 1 0 0 0
15 1 0 0 0
16 1 0 0 0
17 1 0 0 0
18 1 0 0 0
19 1 0 0 0
20 1 0 0 0
21 1 0 0 0
22 1 0 0 0
23 1 0 0 0
24 1 0 0 0
25 1 0 0 0
26 1 0 0 0
27 1 0 0 0
28 1 0 0 0
29 1 0 0 0
30 1 0 0 0
31 1 0 0 0
32 1 0 0 0
33 1 0 0 0
34 1 0 0 0
35 1 0 0 0
36 1 0 0 0
37 1 0 0 0
38 1 0 0 0
39 1 0 0 0
40 1 0 0 0
41 1 0 0 0
42 1 0 0 0
43 1 0 0 0
44 1 0 0 0
45 1 0 0 0
46 1 0 0 0
47 1 0 0 0
48 1 0 0 0
49 1 0 0 0
50 1 0 0 0
51 1 0 0 0
52 1 0 0 0
53 1 0 0 0
54 1 0 0 0
55 1 0 0 0
56 1 0 0 0
57 1 0 0 0
58 1 0 0 0

Improper Coeffs # cvff

1 1.1 -1 2
2 1.1 -1 2
3 1.1 -1 2
4 1.1 -1 2
5 1.1 -1 2
6 1.1 -1 2
7 1.1 -1 2

Atoms # full

32 7 3 -0.1743 23.501812943487074 18.306107091324826 16.19581380679407 0 0 1
10313 4 3 -0.1743 14.384118995287414 18.448646504557388 14.507849015615923 0 1 0
10 4 8 -0.07199999999999999 21.449062908878346 17.950815082956012 19.63136101308321 0 1 0
83 4 6 0.148 17.688000393207354 21.02197230302056 16.22283433946436 0 1 0
1028 7 3 -0.2033 20.61900010173154 22.317451207604194 17.443514422050665 0 0 1
1160 4 8 -0.1678 16.445929289970827 24.553469569656958 17.92549258465718 0 1 0
1105 4 3 -0.1743 24.90306583755245 25.066755201232002 14.803526539340469 0 1 0
1084 4 8 -0.05925 17.319584725914126 20.94871129498606 17.205005552830848 0 1 0
10315 4 5 0.3486 15.255230072866892 17.8943090226491 13.687076632087242 0 1 0
922 7 3 -0.1743 22.075493858826817 20.02457394686607 14.23230465972055 0 0 1
1089 4 8 -0.05925 16.18653987132426 21.858311044721745 19.132799167563007 0 1 0
8 4 6 0.148 20.27831227807869 19.731136449618674 19.896303195632193 0 1 0
1254 4 6 0.14525 18.966883839697342 25.739829280272584 19.873126573597116 0 1 0
175 4 5 0.6308 16.61559271340928 23.4648844851013 15.56323557060519 0 1 0
897 4 7 0.0617 18.938252697980577 13.829240316545636 21.069416964134255 0 1 0
887 4 7 0.0617 18.444783453100147 13.789337131967622 18.579778178670097 0 1 0
1166 4 6 0.14 17.970826830459448 26.089069900049047 21.928543526173765 0 1 0
991 4 3 -0.1743 16.657636843386065 14.927210154332949 13.621702929581263 0 1 0
996 4 3 -0.2108 17.754326033851807 15.975251747580923 16.977097396917447 0 1 0
1100 4 3 -0.1743 25.637101275570508 24.08026807813166 20.727023207043707 0 1 0
1009 4 5 0.3486 24.237563310202752 25.453845333910955 19.349468301494618 0 1 0
2028 3 2 0.4198 26.19544257465735 19.462960132909057 19.064499820455755 -1 0 1
1006 4 3 -0.1743 23.825441195241485 23.199657599591283 19.935727661138287 0 1 0
174 4 3 -0.2161 17.979802171775294 23.48901574948906 15.615665981592743 0 1 0
997 4 8 -0.19225 17.77947233714714 19.81861585946769 17.967553935186913 0 1 0
81 4 5 0.3486 16.446375981424616 17.231169086193315 14.532788855675939 0 1 0
2123 4 3 -0.2108 21.681278497898365 26.197420038146532 21.61450244200899 0 1 0
1159 4 5 0.0306 16.03941534150835 23.290337903753027 17.063455308335367 0 1 0
11 4 6 0.139 22.356626738717956 18.51367508212161 19.443835562690918 0 1 0
917 7 3 -0.1743 21.278247305447447 19.784625770066587 16.915698237397496 0 0 1
994 3 5 0.3326 14.218290097933329 15.52302931153 19.213837641214386 0 0 1
1999 3 3 -0.1743 16.19710250959127 14.04125878163267 20.81669817070562 0 0 1
6 4 8 0.1606 19.057138438751196 18.055005893795464 19.993248092106665 0 1 0
11205 4 6 0.148 25.492652913045433 14.915653392662952 17.88820548525934 0 1 0
10240 4 6 0.139 24.187761707145782 16.826221816173327 19.00872336653772 0 1 0
9 4 8 -0.185 20.299805897147497 18.6844579007559 19.807565600087194 0 1 0
1011 4 5 0.3486 24.914344165872762 26.279038658993343 16.901501226685607 0 1 0
1 4 6 0.14525 18.442843758421954 19.056931168408838 17.557887481968105 0 1 0
895 4 5 -0.0624 20.00956274358382 13.719228560396132 20.899454369362658 0 1 0
1008 4 3 -0.1743 22.93690875457809 25.82993064169711 19.16332517454955 0 1 0
924 7 3 -0.2033 20.28805290280558 21.909599602964033 15.366440307863382 0 0 1
25 7 5 0.3486 25.654375226767492 17.522960338363728 14.372013994972937 0 0 1
894 4 5 0.0516 20.37602289121667 14.417547455101504 19.494404861929873 0 1 0
1095 4 5 0.3326 23.715787996446664 24.710963413352424 21.890246642090304 0 1 0
920 7 5 0.3486 22.106911283009076 20.781930985794546 16.479891352611332 0 0 1
11285 4 3 -0.1923 19.35831677331769 16.825949377858553 14.886202203581758 0 1 0
1099 4 5 0.3486 24.326391999143365 24.343445919685983 20.44654102134671 0 1 0
923 7 5 0.6099 21.25014154276891 22.111422032553328 16.264300494374993 0 0 1
1000 4 8 0.1896 17.516228745753253 19.82183092579891 19.365494568275615 0 1 0
2035 3 6 0.14 26.576259322591365 16.47478548771176 21.170818687627516 -1 0 1
1920 4 6 0.14 18.082238209088935 16.16845838615488 19.972187506963355 0 1 0
893 4 8 -0.0713 20.145095926554642 15.96185522341342 19.625836126514145 0 1 0
886 4 5 -0.1204 19.72787207516152 14.754371871173573 17.005873764836853 0 1 0
7 4 1 -0.07000000000000001 21.41060550296299 16.538065598948183 19.629269935916238 0 1 0
884 4 5 0.3926 18.377280868907363 15.066575019004762 16.266058910568002 0 1 0
1104 4 3 -0.1743 23.955154138977065 24.07201497393561 17.41162385760334 0 1 0
918 7 3 -0.1743 23.47987843887923 21.56579879171208 14.72697135192106 0 0 1
84 4 3 -0.1743 17.212901351102317 18.262749829718775 14.973034851584954 0 1 0
29 7 5 0.3486 24.02892773736648 19.306986990538306 15.466514221481555 0 0 1
5 4 8 -0.162 19.03036083690051 16.696385843148203 19.893988312254518 0 1 0
1003 4 4 -0.626 17.87771865970155 18.781904219825975 20.16327739611076 0 1 0
993 3 3 -0.1923 14.707492126469779 15.403323609300239 17.961711338112465 0 0 1
11284 4 5 0.3326 18.619331512579144 15.700356223394419 14.789668560062374 0 1 0
1939 7 3 -0.2033 21.91515845180581 23.22466039378716 15.946226306303016 0 0 1
1161 4 8 -0.05925 15.694700779857126 25.775435985477362 17.905947254753276 0 1 0
896 4 8 -0.0713 21.855675665389853 14.373953022283604 19.12340934095019 0 1 0
1158 4 8 -0.19225 18.077030571299627 25.711045261662463 19.275925527033472 0 1 0
1156 4 8 -0.05925 17.683794338218537 24.52204528910721 18.60832274897948 0 1 0
1083 4 3 -0.2161 13.960187078667241 23.998674698181926 15.958946124343388 0 1 0
11283 4 3 -0.1923 19.472836139096103 14.887082126905312 14.092174406642771 0 1 0
11204 4 8 -0.185 24.511087941484494 14.782661919071739 18.3140606953003 0 1 0
992 4 5 0.3486 17.402449671698164 16.03212300199757 13.946739608638332 0 1 0
11199 4 3 -0.2108 17.559824288557227 13.998782778829405 16.170925924121388 0 1 0
79 4 3 -0.1743 15.830258730982708 16.701378115207294 15.60858696381968 0 1 0
12 4 1 -0.07000000000000001 22.499723011166896 15.590678982694428 19.356731241296906 0 1 0
1154 4 6 0.148 18.45683561891129 23.768731446228845 18.580081486680136 0 1 0
999 4 8 -0.19225 16.72623643286595 20.85832736233187 19.900412614602704 0 1 0
1096 4 3 -0.1743 24.973444865862852 26.52352462500264 19.809786549494945 0 1 0
891 4 7 0.09520000000000001 20.974905621039913 15.421523890542801 21.865742802922856 0 1 0
28 7 5 0.3486 24.554477317093813 18.603870708386015 14.190047723243906 0 0 1
1157 4 3 -0.2161 14.132946478169366 21.895885731995307 16.583645458239722 0 1 0
1085 4 8 -0.1678 16.564905740102198 22.006916827907542 17.768594705355397 0 1 0
27 7 3 -0.1743 25.052555266382228 19.85934523747227 16.17281209764974 0 0 1
1181 5 3 -0.2161 19.392807971598792 26.034006002272463 15.131710083961885 0 0 1
176 4 3 -0.2161 16.290490352563264 22.429942727630507 14.804266969951001 0 1 0
1001 4 6 0.14525 16.598249330808475 20.837991884730783 20.973504995715416 0 1 0
2 4 7 0.09520000000000001 20.317724329872323 15.6455621267285 17.18317504968158 0 1 0
921 7 3 -0.1743 23.02906984729114 20.998493218722384 17.47442942187444 0 0 1
1101 4 3 -0.1743 26.073194413704034 24.441918549490165 17.951662405401002 0 1 0
78 4 3 -0.2161 16.265287579048625 24.580659507180442 14.862699024104383 0 1 0
10241 4 8 -0.07199999999999999 23.768456864829176 15.827829333405882 18.964281458848696 0 1 0
23 7 3 -0.1743 25.24413269278117 16.6699338859955 15.38189867921434 0 0 1
1005 4 2 0.4198 17.118753208170308 18.17495133086153 20.229379013332576 0 1 0
995 3 3 -0.1923 15.209648684622968 16.157345346413848 19.927159217514465 0 0 1
889 4 5 -0.0624 19.507666680048985 13.85274278183352 18.31015138233027 0 1 0
1102 4 5 0.3486 24.815435594487354 24.995722334263053 17.868126822014293 0 1 0
1088 4 6 0.148 15.554235368851895 22.62627787801874 19.5820718032123 0 1 0
919 7 5 0.3486 22.902020056772283 20.420836796367738 15.178603849942272 0 0 1
2131 4 3 -0.2108 21.30682285004232 24.038166720888782 21.504201408379217 0 1 0
1087 4 6 0.148 14.790934376831824 25.883120571978715 17.27582257071835 0 1 0
2002 3 5 0.3486 13.977362601550633 14.151186181977295 19.89349548982716 0 0 1
1155 4 5 0.6308 14.48868675657811 23.167311610764827 16.870540249052027 0 1 0
2148 3 6 0.14525 26.07387266632594 21.395086237228863 20.24662722090962 -1 0 1
892 4 5 -0.1204 20.783549747573787 14.315987992787141 22.15236326563708 0 1 0
2041 3 7 0.0617 26.269661844677813 13.674874224732093 21.507839768173895 -1 0 1
105 4 5 0.3486 25.509815158855307 26.081103405217892 15.433688168159732 0 1 0
888 4 7 0.09520000000000001 20.411792131101024 14.12926266893002 16.37153863719537 0 1 0
1153 4 3 -0.2161 13.857972300518579 23.444526181289465 18.08176238311421 0 1 0
2128 4 5 0.3926 22.090230839921126 24.977210335213996 22.049464766897962 0 1 0
2143 3 4 -0.626 26.585385632912228 18.891315392300683 19.802985103536866 -1 0 1
11213 4 6 0.14525 23.712396658091457 13.775724895785162 15.584042661927027 0 1 0
2145 3 8 -0.19225 26.772376841858883 20.971077149312123 20.983039144668684 -1 0 1
102 4 3 -0.1743 26.776371406509284 25.594286225596512 15.46667432870403 0 1 0
1928 3 3 -0.1923 24.376958775245146 18.019149261835935 22.377753896354648 -1 0 1
1922 4 7 0.09520000000000001 21.835791959692425 13.990266890069396 22.291758101928718 0 1 0
26 7 3 -0.1743 23.444763622387814 18.011288726131088 13.64268854241565 0 0 1
1926 4 3 -0.2108 20.504979912370125 15.141061318020693 24.35959174234827 0 1 0
2912 3 5 -0.1204 24.717665695307424 15.450012502425608 25.1588949292575 -1 0 1
4030 3 3 -0.2161 19.52633132477318 23.67516761187281 28.070083960957714 -1 0 1
2211 4 5 0.0516 19.45004745439215 26.269083321325965 24.381367737012898 0 1 0
3162 4 8 -0.19225 23.146152612892955 26.30029997255674 30.476154891879773 0 1 0
2224 3 8 -0.19225 25.735299958439462 24.341561958541764 25.093614502352516 -1 0 1
1098 4 3 -0.1923 23.9071808962831 23.592428715559883 22.565352478717344 0 1 0
2225 3 8 -0.05925 26.518877318927906 23.234053958050865 24.824681208917738 -1 0 1
2997 3 8 -0.05925 18.278795586454066 20.81986273295594 29.124648436642435 -1 0 1
3164 4 8 -0.19225 23.843045215276398 26.06140765765855 28.168472037870004 0 1 0
1919 3 5 0.3486 21.052337542428653 20.121750754240864 24.643625550393548 -1 0 1
1010 3 3 -0.1743 21.891166812119543 17.331443734806385 23.552728004466516 -1 0 1
3005 3 8 -0.05925 21.18092245452876 20.204393112218987 30.169331476035584 -1 0 1
998 3 3 -0.2033 16.519510754769744 21.707452241351284 25.08625552070405 -1 0 1
2209 4 5 -0.0624 18.081461126671687 26.07953788620933 25.09957020625088 0 1 0
4219 3 8 0.1896 15.865475298864915 20.759819087048946 29.66775367453094 -1 0 1
2004 3 5 0.3486 18.19628555813306 20.002772527304074 24.691724138060813 -1 0 1
2906 3 3 -0.2033 13.998057602244588 17.166530372677045 28.198130051137113 0 0 1
4220 3 2 0.4198 14.687918385029372 19.236058354251313 28.8889849653699 -1 0 1
1092 4 7 0.0617 19.555350466011646 24.36297568300782 23.155376480563703 0 1 0
3172 4 5 0.0306 26.50246025634542 24.370546625118244 30.539861451916927 0 1 0
2215 4 8 -0.162 20.76626964719563 26.683578317085804 26.564178631505552 0 1 0
2008 3 8 0.1896 23.31045544642416 19.844788567853136 28.908155257056116 -1 0 1
2009 3 8 -0.19225 22.26507511941831 19.379910555212682 29.692411982950468 -1 0 1
3167 4 8 -0.1678 25.2815669216795 25.170634265349886 29.971510831669782 0 1 0
2133 3 6 0.148 26.784583024987732 18.253627750455795 29.477918661544237 -1 0 1
3082 3 6 0.148 19.128004744072918 20.47575403055704 28.441680869833895 -1 0 1
2010 3 6 0.14525 22.44673894979178 18.345412244667713 30.059823222055314 -1 0 1
2122 4 6 0.14 20.504324694336393 25.762311366149433 27.067462234918366 0 1 0
2121 3 3 -0.2033 18.64513590610809 22.16353841760449 25.42367392988061 -1 0 1
2012 3 6 0.14 22.94506855204787 17.264084102252443 27.98717281448559 -1 0 1
4218 3 8 -0.19225 16.95407959346381 20.3456967943743 28.92412409271885 -1 0 1
2015 3 8 -0.162 23.953174301077652 16.95133446143338 28.23645670781444 -1 0 1
2208 4 7 0.0617 18.266725876084262 25.383837465669448 25.935975414285604 0 1 0
2129 4 7 0.09520000000000001 22.217439837017295 25.777528728108848 23.931258124338473 0 1 0
1917 3 3 -0.1743 21.100829473844787 19.825929302805427 25.984831797964382 -1 0 1
2903 3 3 -0.1743 14.98246606278305 14.841601630912544 29.29234066221425 0 0 1
1832 4 3 -0.1743 19.624525155480356 13.874853007242987 26.294257323970456 0 1 0
1002 3 5 0.3486 19.58140284392559 19.583908107728508 24.069399492343003 -1 0 1
2016 3 5 -0.1204 22.351338442466147 13.974143988734195 29.511427782203988 -1 0 1
2019 3 8 -0.0713 24.389230414593733 15.646551787519934 28.02527224550129 -1 0 1
3170 4 6 0.148 25.673487983078033 25.049408962499005 27.77147216233027 0 1 0
2914 3 7 0.09520000000000001 25.347125641294284 14.538093310989451 25.022627925913735 -1 0 1
1091 4 5 -0.0624 20.114082939619145 24.908884488014056 23.948906693039184 0 1 0
2017 3 5 -0.0624 22.334394525222834 14.087172893977344 27.91789046380913 -1 0 1
2220 4 6 0.14525 23.72784786457632 26.12502042659201 27.137683879469524 0 1 0
2022 3 1 -0.07000000000000001 25.65215335987483 15.188124179320738 28.4952459347547 -1 0 1
1933 3 7 0.09520000000000001 25.274339108681218 16.1045975049187 25.87111022681831 -1 0 1
1930 3 3 -0.1923 25.209627193843552 18.34615891770005 24.41582197807486 -1 0 1
2020 3 5 0.0516 23.634575741071952 14.476213707151414 27.254943598798295 -1 0 1
1918 3 3 -0.1743 21.043822238937196 21.474256302828678 24.529469382334362 -1 0 1
2124 4 7 0.09520000000000001 22.125965439260657 24.02540601895356 24.01952756990553 0 1 0
3168 4 8 -0.05925 25.0461390959212 25.442572942630516 28.58375576650409 0 1 0
2223 3 4 -0.626 25.565811456208564 26.67754230989541 25.30355671357203 -1 0 1
2005 3 5 0.6099 17.8256097377134 21.48295294788888 24.646098770859986 -1 0 1
3092 3 3 -0.2161 20.750392129348363 24.6083562479948 29.577993651419288 -1 0 1
3003 3 6 0.148 20.521647158675577 19.788642220547455 30.92697009209859 -1 0 1
1924 3 3 -0.1743 23.428232723774492 20.316219937637136 24.385378741995986 -1 0 1
2132 3 4 -0.626 24.519620886480702 19.195557079400242 28.827994897805503 -1 0 1
2130 3 2 0.4198 25.250866889220113 19.839835409056654 28.48174138312814 -1 0 1
3087 3 6 0.148 22.21271293810868 23.016749929223742 28.575810672411386 -1 0 1
1162 4 7 0.0617 17.371400626494907 25.54956032264044 24.40583013669756 0 1 0
2134 3 8 -0.185 26.11922898698956 17.487825775965852 29.135938888083217 -1 0 1
1004 3 3 -0.1743 19.62691029424581 18.288275539467698 24.225351901421902 -1 0 1
2014 3 8 0.1606 24.853259926816214 17.88968718445118 28.74604426828239 -1 0 1
2026 3 1 -0.07000000000000001 25.743337130396682 13.703072312336127 28.143503301728657 -1 0 1
1007 3 3 -0.1743 22.83833795098667 17.866095091533175 25.465993737920655 -1 0 1
3157 3 6 0.14 14.09046810969293 22.492069503540495 28.990066248976866 -1 0 1
2127 3 6 0.14525 23.878067902389866 21.65254550862787 27.830417704383535 -1 0 1
2222 3 6 0.148 25.993726875725137 22.314546729021743 24.61139435748531 -1 0 1
3921 3 5 0.3926 20.798688935570617 13.792503602490454 29.955662902088324 -1 0 1
4217 3 4 -0.626 14.67251127454429 20.07360463805655 29.51208470945042 -1 0 1
2125 3 8 -0.19225 23.09738618331766 21.141754702843038 28.422120880034896 -1 0 1
1923 4 5 0.3926 19.934567498611436 14.211773986652265 23.508718044821457 0 1 0
1931 3 5 0.3926 24.584804724347137 16.107836781266368 23.733348212907426 -1 0 1
2221 3 6 0.14525 24.743062733175904 24.231083964751235 25.169287693477145 -1 0 1
1929 3 5 0.3326 24.248371449671325 17.705182084698556 23.66996136421721 -1 0 1
2011 3 7 0.09520000000000001 22.764946700299774 14.848048986499492 29.95446891397162 -1 0 1
3089 3 8 -0.05925 22.057896434095344 22.00237866743331 28.8623966946042 -1 0 1
2206 4 3 -0.2108 15.671556088301521 26.548442294377985 26.813286969133834 0 1 0
3002 3 5 0.0306 19.94968938765422 22.466289393239258 30.259772799255497 -1 0 1
2904 3 5 0.3486 14.743837788382752 14.990877168518985 27.9428046586727 0 0 1
3085 3 8 -0.1678 18.47957455305402 21.75465153993993 30.138592374559565 -1 0 1
4133 3 6 0.14525 16.81462392296893 19.58313653533758 28.1542182807651 -1 0 1
2126 4 5 -0.1204 21.67448002558416 24.896916331110624 23.566343773875474 0 1 0
2290 4 3 -0.1923 15.059496980252815 25.789873016795205 24.345157597317144 0 1 0
1921 4 3 -0.2108 18.65898865172378 14.723285244497657 23.255049851665117 0 1 0
3008 3 3 -0.2108 20.048752718017344 14.774495819217089 29.36587491150051 -1 0 1
2003 3 3 -0.1743 18.127816133689265 19.50910480214908 25.914607606435073 -1 0 1
2025 3 7 0.0617 22.5612413698052 15.48749378321744 25.63804603058236 -1 0 1
1925 3 5 0.3486 22.416572502991862 19.577104527963947 23.94342890287469 -1 0 1
1086 3 3 -0.1743 17.149644800938535 19.37528685987315 23.968489471337108 -1 0 1
1927 3 5 0.3486 22.80143665290134 18.07147942436991 24.14029295473793 -1 0 1
2007 3 3 -0.1743 19.489245286932942 19.866450950857438 22.75571502210163 -1 0 1
2023 3 5 -0.0624 23.42582505230572 14.866058562610235 25.768190367574583 -1 0 1
3094 4 6 0.148 24.67305707627506 22.281923838434007 30.15558187903887 0 1 0
1090 4 7 0.0617 20.001370900879362 24.28332352639647 24.83662227676784 0 1 0
3001 3 8 -0.1678 21.022734063484727 21.529932175305948 29.72500722812477 -1 0 1
3006 3 5 0.6308 19.714091577266558 23.790393407947423 29.418274958571942 -1 0 1
3091 4 8 -0.05925 24.332880377407317 25.623855134469004 30.861127879739218 0 1 0
2911 3 3 -0.2108 23.832698965378484 15.349294599504441 22.871943349780192 -1 0 1
3096 4 8 -0.05925 25.127520820722676 22.32572191658543 31.15003462550341 0 1 0
2006 3 3 -0.2033 17.873510744613085 22.01037057891131 23.42144577706528 -1 0 1
3163 4 8 0.1896 22.925695178749923 26.553352321704544 29.092641950259033 0 1 0
2907 3 3 -0.1743 15.828651178553958 15.538946690202609 27.38714930332706 0 0 1
3007 3 3 -0.2161 18.67960689685826 24.459992342003886 29.942542380761868 -1 0 1
3086 3 8 -0.05925 17.341289958270384 22.135750611646685 30.90424868241087 -1 0 1
2996 3 3 -0.1743 14.7043417116382 13.700923084264485 25.933227950453144 0 0 1
2226 3 8 0.1896 26.332129559961487 25.592771210243793 25.180311941460467 -1 0 1
1932 3 3 -0.2108 25.828748654489196 16.021027078731386 23.269956955771878 -1 0 1
2021 3 7 0.0617 22.973523410129935 13.99352034382385 25.217517769766364 -1 0 1
3175 4 3 -0.2161 26.46547017275346 22.823779207102866 28.67870302909605 0 1 0
2136 3 8 -0.07199999999999999 26.530619571459212 16.133010331545766 28.98643350319215 -1 0 1
2300 3 2 0.4198 24.784884149411738 26.601466528418797 24.732364024676443 -1 0 1
2013 3 7 0.0617 21.597751360611674 14.842417108223176 27.520710217500103 -1 0 1
2905 3 5 0.6099 13.622061790430973 16.009613567537567 27.675861666273427 0 0 1
3084 3 8 -0.19225 16.02466151193208 21.683348483231654 30.61539648322709 -1 0 1
2909 3 3 -0.1743 22.34667390703669 19.775270172048423 22.60706743490126 -1 0 1
1093 4 3 -0.1923 24.448292451182482 25.67456954858406 22.492414391442786 0 1 0
3083 3 6 0.14525 15.197361066145774 21.92514976639319 31.185899346333745 -1 0 1
4035 4 7 0.0617 21.41240749003363 16.986738824345224 36.14984623705391 0 1 0
5920 4 3 -0.1743 16.667614281570202 15.986477080336607 37.98872894320506 0 1 0
4145 4 8 -0.19225 26.09936674574329 22.186124435281677 33.82601545256977 0 1 0
4918 4 3 -0.2108 19.335116591529108 16.432080489549314 37.458521603415896 0 1 0
4040 4 7 0.09520000000000001 25.469685313493354 14.35993940441668 36.023653850842145 0 1 0
4916 4 5 0.3926 19.178221687006094 15.47392341047543 36.59956268430319 0 1 0
4221 5 3 -0.2033 15.161875859593984 23.485571814797268 33.241839789944855 0 0 0
4227 5 3 -0.1743 14.856586624517186 23.300455152392054 35.856656413102556 0 0 0
2998 3 3 -0.2161 19.34403928941358 23.73087625919686 32.27013417484587 -1 0 1
4135 2 3 -0.1743 21.79737738411033 20.122745260397984 35.7870758348044 1 0 0
4994 2 3 -0.2033 15.242187866324146 18.39663328823588 35.14391213376001 1 0 0
4148 2 7 0.0617 24.963411357604215 24.906796719679967 36.773766690854416 1 0 0
3102 4 6 0.148 25.62383177687427 18.613621936158875 31.80001750740545 0 1 0
4044 4 7 0.0617 23.67504799784378 16.605749134194852 37.338003861255096 0 1 0
4036 4 5 -0.0624 21.491700089198066 16.04506639819531 35.5968691398701 0 1 0
4042 4 5 -0.1204 25.26420267993162 15.132571014156634 36.79490709137089 0 1 0
4996 2 5 0.6099 16.406953725191716 18.910918955628514 34.701674044874366 1 0 0
4047 4 7 0.0617 23.17652095263643 15.03293114878421 37.53014841380829 0 1 0
4226 5 5 0.3486 16.590921064191726 24.818247957727927 36.53626742488585 0 0 0
3016 4 6 0.139 24.480054898172206 13.969112055028278 31.625604982993647 0 1 0
3010 4 8 -0.07199999999999999 24.82563275503051 16.771292788498037 32.41392996296201 0 1 0
5198 2 7 0.09520000000000001 25.757920232809973 22.976169182124224 38.21815054437846 1 0 0
4917 4 7 0.09520000000000001 21.071228691903507 14.505341253914473 37.1751233753824 0 1 0
4141 2 5 0.3326 23.08762893389267 22.524365350828226 37.262602223553785 1 0 0
4913 4 5 -0.1204 20.58952504435314 14.914347401467735 36.2806855415552 0 1 0
4140 2 5 0.3486 21.680121544357515 21.86499392863621 37.392043462987886 1 0 0
4234 2 7 0.0617 24.448633836471174 25.773398910431514 38.21166185452593 1 0 0
3000 3 5 0.6308 20.180824360037715 22.846969946601924 31.739912400169736 -1 0 1
3014 4 1 -0.07000000000000001 23.719649525424096 14.703061378269092 33.46010621133441 0 1 0
4045 4 5 0.3926 25.926765481820453 14.582134738098215 38.08862131921739 0 1 0
4909 3 3 -0.1743 15.975750888459544 14.471434076923513 31.935821842604565 -1 0 1
4043 4 5 -0.0624 23.75229874037312 15.656771568771157 36.87280308072566 0 1 0
5019 3 3 -0.1743 21.487296317363995 16.215980460483728 39.237246053442135 0 0 0
5001 2 3 -0.1743 19.531632331118693 19.068216524010182 34.8148797849588 1 0 0
3095 4 8 -0.1678 26.050300394311996 23.266964034892347 31.560796564893938 0 1 0
4310 5 3 -0.2033 16.701173841709227 24.892896679152656 33.26587653678516 0 0 0
3004 3 3 -0.2161 20.24772174991555 21.72018332487337 32.47307433999292 -1 0 1
4911 4 7 0.09520000000000001 20.520738329086647 14.083995150206704 35.521746490739105 0 1 0
5182 8 8 0.1896 13.931070967275621 21.69391721840804 39.216887688816215 1 0 0
4225 5 3 -0.1743 16.861794664880883 22.784134460000715 35.22144489710158 0 0 0
4028 2 5 0.3486 18.74550652536898 20.01719938653234 35.39086953057027 1 0 0
4311 5 3 -0.1743 17.908308393431945 26.21266565312697 35.03348727724287 0 0 0
4037 4 8 -0.162 24.213952470975272 17.998219682733932 34.9222436312344 0 1 0
3012 4 6 0.139 24.974089942679882 16.285838286105996 31.46038511927385 0 1 0
4142 2 3 -0.1743 20.79778870090675 22.862205090168196 37.76502883227249 1 0 0
4136 2 5 0.3486 20.96641281577649 21.14304064533905 36.16762513984253 1 0 0
4031 2 5 0.3486 19.524243971660464 20.645712597992212 36.509347246277656 1 0 0
4029 2 3 -0.1743 19.628616056067077 19.820824940207693 37.54007861457465 1 0 0
5006 4 3 -0.1923 24.6385183670383 16.032316636876054 39.5808556871755 0 1 0
5921 4 5 0.3486 16.65828844160131 14.99166794863008 37.13105909248347 0 1 0
5190 5 3 -0.1743 15.65574430737136 25.80685240638445 36.75678662711154 0 0 0
5917 4 5 0.3486 15.407258234960691 13.97921394337005 37.40832427617562 0 1 0
4912 4 5 0.3326 18.104706592839147 14.441023091576717 37.06514618805288 0 1 0
4041 4 5 0.0516 23.040983857766637 15.66625854855852 35.50163773137801 0 1 0
4915 4 3 -0.2108 18.717854231335046 16.06053035731812 35.49426682241389 0 1 0
3101 4 8 0.1606 24.79526263104647 18.71391119731287 33.85969390226518 0 1 0
3098 4 8 -0.19225 24.854318266086977 21.25237730901743 31.900721240337088 0 1 0
4038 4 7 0.09520000000000001 25.891723168938753 15.89601829437042 36.339933645282116 0 1 0
4025 2 3 -0.1743 16.593446560881723 20.437588937030256 36.56423418090779 1 0 0
4137 2 3 -0.2108 22.908292263064553 24.039754680496856 39.0260629070895 1 0 0
3100 4 4 -0.626 25.084371265784778 19.994128878183858 34.095292857961574 0 1 0
3093 4 6 0.148 24.476073657573615 25.56377001249642 31.921384260612054 0 1 0
4134 2 3 -0.1743 17.38166389796062 18.489423902838116 36.83992947339081 1 0 0
4034 4 6 0.14 24.025500102887914 18.442403833898208 35.91887498847126 0 1 0
4147 4 2 0.4198 24.930006964815227 20.273389287021065 35.043041320767784 0 1 0
4230 5 3 -0.1743 16.77626522494977 24.205902717891494 37.76984275532422 0 0 0
4039 4 8 -0.0713 23.888488287529654 16.641029408442073 34.64583471095271 0 1 0
4224 5 5 0.3486 16.04691236648581 23.84180033707368 35.41600796245089 0 0 0
5918 4 3 -0.1743 14.221365112173611 14.748407900965484 37.365784240228805 0 1 0
5007 4 5 0.3326 25.963256323573972 15.64277801630422 39.36393502500042 0 1 0
4998 2 3 -0.2033 16.92856920266714 17.955611484438588 33.92819485421087 1 0 0
4024 2 3 -0.2033 15.97185138485516 19.926518195579654 33.8832180261929 1 0 0
3088 3 6 0.148 17.313700002638697 22.839815287595606 31.768663737417615 -1 0 1
4032 2 3 -0.1743 18.786371293559665 21.738237080030878 36.94387041882142 1 0 0
5923 4 3 -0.1743 16.31459732570271 15.605887518470615 35.964633098560526 0 1 0
4146 2 3 -0.1923 23.106318148084902 23.436868036743675 36.2931373388683 1 0 0
3009 4 8 -0.185 25.08691478924272 18.100911001439236 32.618056520892395 0 1 0
3097 4 6 0.14525 24.191180524720213 20.51701400032291 31.531177519526192 0 1 0
5004 2 3 -0.1743 20.978797537655918 22.080510347904287 35.171125893155875 1 0 0
3930 3 3 -0.1923 21.193466873608372 15.2373725886587 31.874162445242295 -1 0 1
4033 4 7 0.0617 21.048301360354728 16.149453816864632 34.56525171124982 0 1 0
4236 2 5 -0.0624 25.18612649185988 25.117413529625075 37.810674898298736 1 0 0
4139 2 3 -0.1743 21.729934086395975 21.050182202783322 38.43874189983298 1 0 0
2999 3 3 -0.2161 21.398620633297515 23.40795476549499 31.879804614678747 -1 0 1
4222 5 5 0.6099 15.699472818340196 24.450472098316176 33.97949247315881 0 0 0
3011 4 1 -0.07000000000000001 24.16581331106512 16.083585229147673 33.40269577688914 0 1 0
4026 2 5 0.3486 17.29633854861868 19.467500816623744 35.86126008267114 1 0 0
4228 5 5 0.3486 18.00168713658046 25.419490225573696 36.118877209589684 0 0 0
4027 2 3 -0.1743 18.631974515750496 20.982565931901334 34.47704991189447 1 0 0
5184 8 6 0.148 15.193827504759064 18.845950361864244 39.69133394813842 1 0 0
3099 4 8 0.1896 25.359254682856516 21.08510748829331 33.282045684879336 0 1 0
4239 2 5 0.0516 26.60620566516073 25.737035373129274 37.92685996759967 1 0 0
3013 4 8 -0.0713 23.0586813394325 14.389606677269978 34.666323434467216 0 1 0
5098 2 3 -0.1923 23.950246238580867 21.516786759868538 36.82342984719324 1 0 0
5178 8 6 0.14525 14.281583602103543 19.97857157097252 37.930843590789536 1 0 0
4232 2 5 -0.1204 25.144991849203244 23.74409651034889 38.54981315485706 1 0 0
3931 3 3 -0.1743 18.988110390686685 14.621371049686703 33.15318103411028 -1 0 1
4229 5 3 -0.1743 18.841064650872326 24.39165265462851 35.7219902502373 0 0 0
4143 4 6 0.14525 26.321236269474156 22.176014259703486 34.86956632458235 0 1 0
5283 5 5 0.3486 18.79948195658261 26.183650145956832 37.21752060290265 0 0 0
5374 5 8 -0.185 13.929357759209587 26.126289050809188 39.1806013708438 0 0 0
4138 2 5 0.3926 23.74803937336399 23.09141351653003 38.614875852933565 1 0 0
4223 5 3 -0.2033 14.793790347615962 25.414359925638315 34.159717634181476 0 0 0
5109 4 3 -0.1743 25.67806333502994 19.505469990778373 39.90269515728822 0 1 0
5280 5 3 -0.1743 19.130867141396568 25.301456819635618 38.21009979887212 0 0 0
4914 4 3 -0.1923 18.393502912320255 13.926933033450524 38.25480389164916 0 1 0
5008 4 3 -0.1743 26.37658474180956 17.633391300645705 38.15732826266485 0 1 0
4144 4 8 -0.05925 26.46201171249234 23.218496914832592 32.9371060965351 0 1 0
3928 3 5 0.3486 18.92224933548621 14.267015431722706 31.891952161070012 -1 0 1
4231 2 7 0.09520000000000001 25.39928949506077 23.92862327590735 39.588601533134835 1 0 0
3927 3 5 0.3326 20.49825302836188 14.099384919703981 31.457026262972043 -1 0 1
5097 2 3 -0.2108 23.816899976423137 22.10348950393064 39.53386775827532 1 0 0
5183 8 4 -0.626 15.178335743526944 21.65055745244056 39.89593842774045 1 0 0
3926 3 3 -0.1743 18.348340749982988 15.376356425578646 31.27713973438816 -1 0 1
5195 5 3 -0.1743 19.959937825174357 26.612013698900164 36.72246687635648 0 0 0
3090 4 6 0.14525 22.468860102895256 26.62843046414504 31.265635322179364 0 1 0