LAMMPS data file via write_data, version 23 Jun 2022, timestep = 6042000

6215 atoms
11 atom types
6988 bonds
21 bond types
12828 angles
41 angle types
21109 dihedrals
120 dihedral types

10.535912679273345 54.46408732071903 xlo xhi
10.535912679273345 54.46408732071903 ylo yhi
10.535912679273345 54.46408732071903 zlo zhi

Masses

1 1.008
2 14.01
3 1.008
4 12.01
5 12.01
6 12.01
7 16
8 12.01
9 16
10 12.01
11 12.01

Pair Coeffs # lj/cut/coul/long

1 0.0161 2.62548
2 0.1098 3.27352
3 0.0208 2.60018
4 0.0988 3.31521
5 0.1596 3.47896
6 0.1078 3.39771
7 0.0726 3.1561
8 0.0988 3.31521
9 0.0726 3.1561
10 0.0988 3.31521
11 0.0988 3.31521

Bond Coeffs # harmonic

1 334.12 1.433
2 378.57 1.398
3 357.53 1.37
4 395.72 1.086
5 375.92 1.097
6 232.52 1.538
7 250.32 1.516
8 879.32 1.157
9 378.57 1.398
10 357.53 1.37
11 0 0
12 0 0
13 0 0
14 0 0
15 0 0
16 0 0
17 0 0
18 0 0
19 0 0
20 0 0
21 0 0

Angle Coeffs # harmonic

1 64.888 111.51
2 65.583 120.77
3 87.289 119.2
4 67.841 120.27
5 65.183 112.07
6 68.767 120.02
7 65.611 112.24
8 46.816 109.8
9 67.119 119.89
10 38.96 107.58
11 74.346 179.49
12 48.68 119.88
13 0 0
14 0 0
15 0 0
16 0 0
17 0 0
18 0 0
19 0 0
20 0 0
21 0 0
22 0 0
23 0 0
24 0 0
25 0 0
26 0 0
27 0 0
28 0 0
29 0 0
30 0 0
31 0 0
32 0 0
33 0 0
34 0 0
35 0 0
36 0 0
37 0 0
38 0 0
39 0 0
40 0 0
41 0 0

Dihedral Coeffs # fourier

1 1 0 2 180
2 1 3.625 2 180
3 1 0.155556 3 0
4 1 0 2 180
5 1 0.9 2 180
6 3 0.13 3 0 0.29 2 180 0.11 1 0
7 1 0.245 2 180
8 2 0.08 3 0 0.08 3 0
9 1 0 0 0
10 1 0 0 0
11 1 0 0 0
12 1 0 0 0
13 1 0 0 0
14 1 0 0 0
15 1 0 0 0
16 1 0 0 0
17 1 0 0 0
18 1 0 0 0
19 1 0 0 0
20 1 0 0 0
21 1 0 0 0
22 1 0 0 0
23 1 0 0 0
24 1 0 0 0
25 1 0 0 0
26 1 0 0 0
27 1 0 0 0
28 1 0 0 0
29 1 0 0 0
30 1 0 0 0
31 1 0 0 0
32 1 0 0 0
33 1 0 0 0
34 1 0 0 0
35 1 0 0 0
36 1 0 0 0
37 1 0 0 0
38 1 0 0 0
39 1 0 0 0
40 1 0 0 0
41 1 0 0 0
42 1 0 0 0
43 1 0 0 0
44 1 0 0 0
45 1 0 0 0
46 1 0 0 0
47 1 0 0 0
48 1 0 0 0
49 1 0 0 0
50 1 0 0 0
51 1 0 0 0
52 1 0 0 0
53 1 0 0 0
54 1 0 0 0
55 1 0 0 0
56 1 0 0 0
57 1 0 0 0
58 1 0 0 0
59 1 0 0 0
60 1 0 0 0
61 1 0 0 0
62 1 0 0 0
63 1 0 0 0
64 1 0 0 0
65 1 0 0 0
66 1 0 0 0
67 1 0 0 0
68 1 0 0 0
69 1 0 0 0
70 1 0 0 0
71 1 0 0 0
72 1 0 0 0
73 1 0 0 0
74 1 0 0 0
75 1 0 0 0
76 1 0 0 0
77 1 0 0 0
78 1 0 0 0
79 1 0 0 0
80 1 0 0 0
81 1 0 0 0
82 1 0 0 0
83 1 0 0 0
84 1 0 0 0
85 1 0 0 0
86 1 0 0 0
87 1 0 0 0
88 1 0 0 0
89 1 0 0 0
90 1 0 0 0
91 1 0 0 0
92 1 0 0 0
93 1 0 0 0
94 1 0 0 0
95 1 0 0 0
96 1 0 0 0
97 1 0 0 0
98 1 0 0 0
99 1 0 0 0
100 1 0 0 0
101 1 0 0 0
102 1 0 0 0
103 1 0 0 0
104 1 0 0 0
105 1 0 0 0
106 1 0 0 0
107 1 0 0 0
108 1 0 0 0
109 1 0 0 0
110 1 0 0 0
111 1 0 0 0
112 1 0 0 0
113 1 0 0 0
114 1 0 0 0
115 1 0 0 0
116 1 0 0 0
117 1 0 0 0
118 1 0 0 0
119 1 0 0 0
120 1 0 0 0

Atoms # full

85 2 11 -0.1513 17.6006782341736 11.540018884486926 12.045435963201633 0 0 0
680 2 7 -0.3748 16.793564007572545 12.432194100767687 15.548946145627138 0 0 0
746 2 5 0.2498 20.71075774254436 14.796774695495131 13.91297743484414 0 0 0
141 9 3 0.042 12.485657212132264 17.97613709439744 13.518113671297494 1 0 0
820 4 6 -0.08550000000000001 18.72860808943016 20.687897123096228 14.751737545420719 0 0 0
84 2 7 -0.3748 18.334961082313704 13.352561439610188 13.340731554214933 0 0 0
748 2 10 -0.1036 19.72509341855345 14.546699771201041 14.942750679392963 0 0 0
826 4 3 0.042 18.44007818095751 17.852055669256657 14.574701529979421 0 0 0
6 2 4 0.2077 16.861298523138988 11.761479988183641 14.395954517997922 0 0 0
749 2 4 0.2457 17.693592388761257 13.52619543786955 15.682495875742742 0 0 0
83 2 1 0.167 18.184613641329197 11.871717029739314 11.182042589840874 0 0 0
747 2 4 0.2467 18.521375759861527 13.868701664625284 14.591934184110432 0 0 0
143 9 3 0.042 11.939110672794614 19.35002345674868 12.412546102794623 1 0 0
86 2 4 0.2007 17.584610312961598 12.273879918379183 13.248874225969331 0 0 0
140 9 3 0.042 11.944493057672982 19.462169263500073 14.176226511375516 1 0 0
142 9 6 -0.08550000000000001 11.74615999179588 18.7733756866954 13.359636569695528 1 0 0
821 4 3 0.042 18.83590756469915 20.353938116182988 13.687754357798243 0 0 0
817 4 3 0.042 17.687620874514987 20.94838827839114 15.016328132519227 0 0 0
1312 3 3 0.042 12.186611824127239 11.399311698110877 15.377695394812664 1 0 0
823 4 1 0.165 20.536630702175483 18.05926084969857 13.653225262962765 0 0 0
822 4 6 -0.08550000000000001 18.422204773589073 18.28374126365843 15.597833499600462 0 0 0
807 9 1 0.165 11.593492573478027 16.071530950985096 12.215667648215222 1 0 0
828 4 4 -0.0653 20.69290610644212 19.202603743950252 15.478946192001116 0 0 0
825 4 6 -0.008699999999999999 19.285145038998756 19.544875137596982 15.7359858083752 0 0 0
164 2 3 0.0592 18.300146961711867 21.26085084463749 11.047623936498265 0 0 0
827 4 11 -0.1583 21.20147158778621 18.502786545342534 14.408959144178468 0 0 0
818 4 3 0.042 17.369612858856573 18.546902276273936 15.80260369648093 0 0 0
812 9 3 0.042 10.76675484768333 16.605776933686556 14.765032303382107 1 0 0
139 9 11 -0.1583 10.733743258421036 16.416954854651408 11.691463897920803 1 0 0
1309 3 3 0.042 13.884756348463874 10.811679784643637 15.465734227560638 1 0 0
815 2 2 -0.3298 21.470169380940234 15.02906266512542 13.084411012017696 0 0 0
751 2 7 -0.3748 21.097805614598684 15.594438190328571 16.59286627064405 0 0 0
831 4 6 -0.0684 19.186678143905063 20.06685445305441 17.184282609323205 0 0 0
1521 1 7 -0.3748 15.771052069278703 20.65760604587502 20.781140659427066 0 0 0
1601 1 5 0.2498 13.350390833672071 19.503105365064318 20.71727186263748 0 0 0
829 4 3 0.0592 18.706949880545395 19.38428301937247 17.8489540377387 0 0 0
1518 1 10 -0.1036 13.938080509078373 19.911768143490253 19.4688687879745 0 0 0
843 4 6 -0.008699999999999999 21.238514778070453 20.577565286348715 20.158844505728368 0 0 0
834 4 6 0.0466 20.736532746509607 20.104334643418866 17.677875060559177 0 0 0
813 1 4 0.2007 11.080050883306217 20.323427357507335 17.33763910875937 0 0 0
677 3 1 0.165 12.014260687387486 11.949908699859776 18.058158751957148 1 0 0
1537 4 3 0.042 19.080763078986934 20.83547378263666 20.778990278367885 0 0 0
1304 3 11 -0.1583 12.646916236199182 11.248247167052316 18.507538825745172 1 0 0
752 2 10 -0.1026 17.706132108232985 14.085279312078445 16.971981658956338 0 0 0
1602 1 7 -0.3748 11.908715977350408 19.62833917554252 18.214560558016768 0 0 0
1477 2 11 -0.1513 20.4500031230665 16.012118921846263 20.24250951985475 0 0 0
683 4 2 -0.3298 19.151148685905458 11.494683120400742 18.975942085666375 0 0 0
681 2 5 0.2498 16.625223912135066 13.937628558643851 17.882676002426606 0 0 0
1380 3 7 -0.3748 15.046835987192296 11.301387434612995 21.314266641413667 1 0 0
755 2 7 -0.3748 18.97681981921627 15.41054316208595 18.490835358916733 0 0 0
1520 1 4 0.2467 15.169943065390857 20.49375038119406 19.520583150510607 0 0 0
679 3 7 -0.3748 13.032417492205786 12.82364527444748 20.227707831945146 1 0 0
756 2 4 0.2007 20.196057394786006 15.865226417911162 18.896836209108386 0 0 0
1931 3 4 0.2007 14.384947434805479 10.85902735267807 20.201726992389943 1 0 0
678 3 4 0.2077 13.346836158367244 11.618411642716982 19.680668163999698 1 0 0
753 2 4 0.2467 18.90881125581088 14.779361088163608 17.27370686033794 0 0 0
682 2 2 -0.3298 15.734217583492583 13.925290129972508 18.64900421356616 0 0 0
1525 1 10 -0.1026 15.022246196015441 21.29301771574584 17.265608524168996 0 0 0
676 3 2 -0.3298 11.592774448276552 15.996756563221467 20.489115632016922 1 0 0
1373 3 5 0.2498 12.417275963858751 15.36348481237453 20.97498800914728 1 0 0
835 4 3 0.0592 19.903349081126795 18.967365461495525 19.44539474730047 0 0 0
1377 3 4 0.2457 13.885942139198342 13.443675916648814 21.14595523299156 1 0 0
1519 1 4 0.2467 13.208860366526602 20.03273088886931 18.27719246936749 0 0 0
836 4 6 -0.0684 20.875993376623352 19.441254585340026 19.131420984908075 0 0 0
814 1 4 0.2077 11.581392353849054 21.13649574096749 16.29227386922329 0 0 0
1478 2 1 0.167 19.688458179373857 15.854690646279165 20.97569803106075 0 0 0
754 2 4 0.2077 21.30047658580578 15.942270814901828 17.930550143977033 0 0 0
1538 4 6 -0.08550000000000001 20.08751160898302 20.665157498076695 21.242286529382977 0 0 0
1522 1 4 0.2467 13.727501791646958 20.7476417940281 17.208606318057285 0 0 0
1375 6 3 0.0592 10.746602021046629 11.170752825634466 21.479470330541673 0 1 0
1523 1 7 -0.3748 12.95758816940321 21.112784822720137 16.12540751163847 0 0 0
830 4 3 0.0592 18.777425130517955 21.12024488448312 17.279525137563674 0 0 0
1524 1 4 0.2457 15.730891630148477 21.134642543759924 18.438456803953116 0 0 0
750 2 4 0.2467 19.910051009747654 15.005023174089606 16.26212331497387 0 0 0
824 4 3 0.042 18.647138908809474 17.531059230064425 16.3222644107099 0 0 0
1470 2 3 0.042 10.651187284533398 17.139362061358185 23.20160271553086 1 0 0
2079 2 3 0.042 19.507640091157185 18.27567467602136 24.681394052900643 0 0 0
2024 3 11 -0.1583 16.016202405322204 16.426285676349902 26.232645492857607 1 0 0
1517 3 11 -0.1513 13.626632294025795 17.695487641225398 25.393077473107898 1 0 0
2025 3 1 0.165 16.93796308522562 15.991318417482196 26.572353944967876 1 0 0
1383 3 5 0.2498 16.734265469848317 12.520648738876538 23.361085499482932 1 0 0
2034 2 1 0.165 20.709546526609945 14.568565183345001 26.15991865081645 0 0 0
2076 2 3 0.042 19.529196486550283 17.044681109806852 25.84894900694699 0 0 0
1382 3 10 -0.1036 15.773655197458583 13.290590081761742 22.604446906793765 1 0 0
1475 3 4 0.2007 14.348735281424839 16.78506651566027 24.482499475294443 1 0 0
1481 2 3 0.0592 20.625806256805753 17.792973844086358 22.38789109749655 0 0 0
2615 6 4 -0.0653 11.074833479336181 10.8722722884938 25.133085867293637 0 1 0
1378 3 4 0.2467 15.397409479034465 14.551176242674881 23.155985029599048 1 0 0
1374 3 4 0.2467 14.245941755193659 15.25432908619254 22.652339631207184 1 0 0
2080 2 6 -0.008699999999999999 21.096293700423352 16.836835344330026 24.357780329951687 0 0 0
1384 3 2 -0.3298 17.44265209044282 11.873946292449137 23.996950622191072 1 0 0
2077 2 3 0.042 18.788705846994418 16.782290314357795 24.26326295195848 0 0 0
1379 3 7 -0.3748 16.01680684514131 14.996200279603503 24.320168668867886 1 0 0
2030 6 3 0.042 13.012823532835878 12.924885161883095 25.43576732082361 0 1 0
4117 1 3 0.042 16.65819544633628 12.810693496060217 26.20325595785877 0 0 0
1372 3 7 -0.3748 13.743360426654284 16.361057272347686 23.349596336046602 1 0 0
2027 3 4 0.2077 15.499832362043293 16.134116371990878 24.97981880901242 1 0 0
1516 3 1 0.167 12.650680722347317 17.99715357798528 25.11043051004131 1 0 0
2156 3 4 -0.0713 14.184222019651603 18.075435723573655 26.620858714114526 1 0 0
2028 6 3 0.042 12.684766367358757 12.559714946137374 23.746017125352942 0 1 0
2078 2 6 -0.08550000000000001 19.60559603905667 17.20378390239813 24.798851131843648 0 0 0
2070 3 4 -0.0653 15.354933622263133 17.434412248312416 26.998218365138865 1 0 0
2026 6 6 -0.008699999999999999 10.856791301844305 12.335667202003771 25.02758805872112 0 1 0
2031 6 3 0.042 12.07835910763781 14.06143427578629 24.591457572641104 0 1 0
1381 3 4 0.2467 14.959024377392018 12.708845593150091 21.68161406312614 1 0 0
2029 6 6 -0.08550000000000001 12.261335351244288 13.006272174102289 24.663133588922513 0 1 0
2155 3 3 0.0592 13.00574121050191 20.297401150402763 26.18645728474464 1 0 0
1385 2 11 -0.1583 21.00858900130614 14.378846634514655 25.129413025274076 0 0 0
1388 2 7 -0.3748 20.967065295712004 12.078094620299238 25.73147449406804 0 0 0
2620 6 1 0.165 12.527009129158708 11.03872037380805 26.6601613482576 0 1 0
744 2 3 0.042 10.702279223996342 18.7930579335983 23.800195366277407 1 0 0
1390 2 4 0.2457 21.380453514196645 10.718119394665589 25.511192031180315 0 0 0
1387 2 4 0.2007 21.452932085457928 12.69310170475143 23.48657774435481 0 0 0
1386 2 4 0.2077 21.140131750950665 13.056586404037656 24.795020896985022 0 0 0
1484 2 4 -0.0653 21.275243410456802 15.387409252641056 24.190341287658967 0 0 0
1514 3 3 0.042 10.628409240454214 20.341358507513327 25.774033730432166 1 0 0
1629 4 3 0.042 20.07159640394142 19.836398444072643 21.901365291145993 0 0 0
3486 1 3 0.042 15.008730644719485 12.624943615174358 26.862527534425883 0 0 0
1376 3 10 -0.1026 13.528866723452012 14.7135878467274 21.608634239944106 1 0 0
1599 1 2 -0.3298 12.983246857065561 19.287371637829068 21.804634248042916 0 0 0
1513 3 6 -0.08550000000000001 10.713708537105957 20.986516173643345 26.6805160653333 1 0 0
1539 4 3 0.042 20.206882591293944 21.48853683585382 22.04785020670075 0 0 0
1482 2 6 -0.0684 21.50390909867202 17.32535174427848 22.904488217852904 0 0 0
3406 1 4 0.2007 19.696946536527456 13.932840126191483 30.47736194413539 0 0 0
3402 1 7 -0.3748 21.07954820421078 14.046167933434397 28.502753460857015 0 0 0
2139 3 4 0.2007 11.030374605048019 16.23886992023566 28.73860296382621 1 0 0
2718 10 6 -0.08550000000000001 20.72572687938058 19.94497509106381 28.484771443188812 0 0 -1
2068 3 7 -0.3748 10.919818442304598 14.865728341045743 28.88003690449768 1 0 0
2779 3 3 0.042 16.394890220641862 17.279556119903535 30.202409411834207 1 0 0
2075 3 3 0.042 17.397006596944102 19.587914076575892 28.663038782552473 1 0 0
4045 1 4 -0.0713 17.580372390981132 12.766279990953096 30.36650317727907 0 0 0
3315 10 3 0.042 19.031984894456226 17.370649916761238 29.125774216941466 0 0 -1
2148 3 1 0.167 13.001799453032744 16.138272613633628 28.063660093634383 1 0 0
2154 3 6 -0.0684 14.710605638698347 18.83431249451646 28.730348681108197 1 0 0
2152 3 3 0.0592 14.30015433461268 18.411391623298176 29.616187396609362 1 0 0
4116 1 6 -0.008699999999999999 16.50251219628094 11.976929698779202 28.352001917106264 0 0 0
2071 3 6 -0.08550000000000001 16.276962013481338 16.890057363352284 29.17366860539499 1 0 0
2066 3 2 -0.3298 11.839111574288516 11.512890946363889 29.22472894053733 1 0 0
4118 1 4 -0.0653 17.718431724656305 12.638981320289824 28.99187525996554 0 0 0
3904 10 3 0.0592 19.504102978792524 18.73841371803913 31.51307383260248 0 0 -1
2150 3 6 0.0466 13.55796462565863 18.855912284372266 27.644865715829113 1 0 0
3401 1 11 -0.1583 18.90560365523042 13.083191737896705 28.34850906076207 0 0 0
2145 3 3 0.042 12.23573028867209 20.982557964612806 29.90122013610938 1 0 0
2153 3 3 0.0592 15.117829231038309 19.768496633869997 28.994098780067837 1 0 0
3314 10 6 -0.008699999999999999 20.79727663718679 18.85146682506272 29.62542013581303 0 0 -1
4126 1 4 -0.0713 15.522512710214757 13.15276772957175 31.75193696926244 0 0 0
2157 3 3 0.042 17.24219205064989 16.33555089056971 28.95270830885503 1 0 0
3313 10 3 0.042 20.710170781064626 16.964677515681252 28.620438624951674 0 0 -1
3491 1 2 -0.3298 16.9985158916999 19.693370528417788 32.2247129300535 0 0 0
2147 3 6 -0.008699999999999999 11.531840195902973 20.399582994594624 27.85531412918606 1 0 0
2716 10 3 0.042 21.39068705687517 20.763224764878352 28.710064406825474 0 0 -1
2146 3 4 -0.0713 12.2687698831151 18.138882918468887 28.06609068945513 1 0 0
4119 1 3 0.0592 14.920774551089963 10.924303726906805 29.432831350064735 0 0 0
4129 1 11 -0.1513 15.529325713546243 14.590380824059395 31.701450794153242 0 0 0
4120 1 6 -0.0684 15.435501623315847 11.9165801841791 29.46591683035037 0 0 0
2073 3 6 -0.08550000000000001 17.049651128921816 18.982381380830795 27.85463041307315 1 0 0
4047 1 1 0.167 18.378099853039238 13.70892339187997 32.26245164182427 0 0 0
4046 1 11 -0.1513 18.515806413922267 13.475036166427966 31.168552933820987 0 0 0
3487 1 1 0.167 16.192290766098488 14.913848714760142 30.91748069927904 0 0 0
2158 3 6 -0.008699999999999999 15.933268284507381 17.96841120150822 28.21999525802355 1 0 0
4125 1 6 -0.0684 16.399311888851056 10.80020006402067 31.60758968666411 0 0 0
2144 3 11 -0.1513 12.176014819797246 16.82402788516855 28.214776349016432 1 0 0
2780 3 3 0.042 15.477777738091707 16.107809486263196 29.14416350842522 1 0 0
3312 10 3 0.0592 19.825921844764416 20.429429095989978 31.008459378751965 0 0 -1
3403 1 4 0.2077 19.84853877317439 13.745340456719484 29.085422184114325 0 0 0
3903 10 6 -0.0684 20.23362167992383 19.437687076219767 31.0583459515509 0 0 -1
3316 10 6 -0.08550000000000001 20.12484481720557 17.46431815310884 29.41149128239455 0 0 -1
3317 10 3 0.042 20.281195337635538 16.865504923160742 30.355825530659352 0 0 -1
4124 1 6 0.0466 16.27343078009074 12.113274792521398 30.784096736921857 0 0 0
4122 1 3 0.0592 14.626916851375142 12.68003409752006 29.378816669477082 0 0 0
3485 1 6 -0.08550000000000001 16.066122414963058 12.86971003210542 27.150562456032834 0 0 0
3484 1 3 0.042 16.075245021223274 13.919929384547274 27.49697495499447 0 0 0
4123 1 3 0.0592 17.43300860224776 10.875469098638055 31.964103681067556 0 0 0
2819 6 2 -0.3298 11.55070646857159 14.736880827070507 31.988897173575612 0 1 0
2143 3 4 -0.0653 11.200002536099827 19.00874029026579 28.288121291430635 1 0 0
2064 3 5 0.2498 10.87004064260535 12.091687606287312 29.498550054536334 1 0 0
2142 3 6 -0.08550000000000001 11.59822144942627 21.322307611190038 29.099785079776783 1 0 0
3409 1 7 -0.3748 20.727226556428207 14.420309925473667 31.257633656124256 0 0 0
3400 1 1 0.165 19.134467624246028 12.831371923950122 27.333142993550144 0 0 0
2149 3 6 -0.0684 13.025737159519144 20.25557609814666 27.252642318962195 1 0 0
2719 10 3 0.042 21.047831734055954 19.47947456092534 27.563756386055537 0 0 -1
2609 6 3 0.042 10.853418747880323 13.23471151528003 27.08750558052455 0 1 0
3902 10 6 0.0466 21.492280374564345 19.507475950425206 32.04269031256993 0 0 -1
2151 3 3 0.0592 13.671052336744928 21.093062184480026 27.526560246956905 1 0 0
2717 10 3 0.042 19.723800601540177 20.28159493232191 28.413315145365388 0 0 -1
2037 2 2 -0.3298 21.501094995487335 10.7351260306287 28.983137787088367 0 0 0
2072 3 3 0.042 16.853082807249113 19.587648433385276 27.016248647806854 1 0 0
2074 3 3 0.042 17.9417819262177 18.425634051632734 27.555178249254276 1 0 0
2140 3 3 0.042 10.590240820338963 21.418623943555826 29.62026661112705 1 0 0
3493 1 10 -0.1036 15.984579780493341 18.538752779862627 34.30346393138025 0 0 0
3894 10 6 -0.08550000000000001 19.779143821141687 19.991897184059418 35.22882653444164 0 0 -1
3476 12 3 0.042 11.738417545342946 19.15266227389798 37.69821337381547 0 1 0
3311 10 3 0.042 19.588106098750544 20.911987976659166 35.77786465332341 0 0 -1
4602 1 11 -0.1583 20.09322865028068 11.838697490941035 36.810738350818006 0 0 0
3900 10 6 -0.0684 21.266053905779373 18.81440494150861 33.46750020967717 0 0 -1
4109 12 3 0.042 11.90986474445809 17.981603497812227 36.45954863469238 0 1 0
4131 1 4 -0.0653 15.04068859165873 12.438879589228632 32.87253382926813 0 0 0
4600 1 1 0.165 19.76901005222986 11.6273192235321 35.79575862635852 0 0 0
4132 1 11 -0.1583 14.630618983959137 13.143764287658119 34.01748213498249 0 0 0
3489 1 7 -0.3748 15.484450353356825 16.644115815823493 32.954422946427385 0 0 0
3898 10 6 -0.008699999999999999 21.160741079666867 19.94702525647171 34.60028816423397 0 0 -1
3494 1 4 0.2457 14.991593793218552 16.54434830426057 35.37306060315593 0 0 0
3399 12 2 -0.3298 12.431501783241478 11.034557244256687 36.09152331235825 0 1 0
3498 1 4 0.2467 15.17595847834227 18.652034158829828 36.64736546889863 0 0 0
4604 1 4 -0.0653 19.423004364184642 12.612367686175421 37.750374884432105 0 0 0
4135 1 7 -0.3748 14.568495654536807 15.181927869499857 35.24699348581525 0 0 0
5401 1 6 -0.08550000000000001 18.28084024568325 14.49558449315921 36.42251834390622 0 0 0
3496 1 10 -0.1026 14.84466198585017 17.274018387099616 36.60002734572234 0 0 0
3497 1 7 -0.3748 16.605817033847337 20.347240145204353 35.713361743373994 0 0 0
4133 1 4 0.2077 14.79069733732114 14.553333365761123 34.03100798179133 0 0 0
3492 1 5 0.2498 16.57468598582841 19.178493953749907 33.208361127396614 0 0 0
3490 1 4 0.2467 15.477198225575187 17.21874402710251 34.221679625154295 0 0 0
3396 12 5 0.2498 11.570482227730611 10.931318413450557 36.87810178793781 0 1 0
5398 1 3 0.042 18.375183310761173 14.002335695238099 35.418609970999256 0 0 0
3495 1 4 0.2467 15.924140523979172 19.157541961696886 35.59588297293186 0 0 0
5403 1 3 0.042 17.398047433565726 15.100193943467666 36.24156585395786 0 0 0
3358 10 3 0.042 19.617893904762806 19.093533190926458 35.77647319009226 0 0 -1
3899 10 3 0.0592 20.37970040528697 18.17380393898783 33.435900618435426 0 0 -1
4134 1 1 0.165 14.33395415793317 12.58427353128229 34.88568761075034 0 0 0
4601 1 4 0.2077 21.311185806399696 11.238888706459093 37.18763821206558 0 0 0
5400 1 3 0.042 17.347745118360375 11.716746450465784 36.555211720998784 0 0 0
3488 1 4 0.2007 15.278544303320254 15.265793206934347 32.888711174854805 0 0 0
3500 1 4 0.2007 16.337824727605078 21.204493261606885 36.76436424583897 0 0 0
3475 12 6 -0.08550000000000001 11.29687749240233 18.175634213506257 37.35829763437483 0 1 0
5402 1 3 0.042 19.196423991680998 15.10413703500782 36.6118068730939 0 0 0
3477 12 1 0.165 10.793548989586082 15.676092235391977 36.487498120721014 0 1 0
3893 10 3 0.042 19.028474837585534 19.885342833500964 34.4086347870621 0 0 -1
4128 1 6 -0.008699999999999999 15.355906828653811 10.87935479591205 32.794770991836295 0 0 0
5306 1 3 0.042 16.12229515723884 13.07347154011729 36.62560132883843 0 0 0
4605 1 6 -0.008699999999999999 18.12708423659636 13.49578776167479 37.59069967117823 0 0 0
5399 1 6 -0.08550000000000001 16.953829182839055 12.563242318647294 37.19446970192216 0 0 0
2820 6 5 0.2498 10.654250658340434 14.327338313811172 32.61757995312787 0 1 0
4052 1 3 0.042 16.97931096249507 11.142760732825648 34.25276456823809 0 0 0
3501 1 4 0.2077 15.399569046860673 20.773771651697963 37.75348548952444 0 0 0
4142 1 5 0.2498 14.363817784484278 16.616975540258032 37.74489853266476 0 0 0
3499 1 7 -0.3748 14.88506754369163 19.471684177602572 37.74161430268412 0 0 0
4051 1 3 0.042 15.421692199690808 10.695743542774489 34.992809092042776 0 0 0
4606 1 4 -0.0713 20.033186832479444 12.82082781050457 38.991221254322525 0 0 0
3951 4 4 -0.0713 13.858767032820396 15.144654466325248 42.739250454830795 0 1 0
3504 1 1 0.165 14.184483909835532 21.436300458210365 39.506329798443275 0 0 0
3352 4 3 0.042 12.13460996091417 10.860607866912723 41.50429859482155 0 1 0
3959 4 11 -0.1583 15.559369031112965 11.142575045492087 41.61355722082814 0 1 0
5312 1 3 0.0592 17.14024146618142 13.994673265018632 39.35032913772131 0 0 0
3964 4 3 0.042 14.274574206631932 12.045328687047414 38.67841157778522 0 1 0
4623 1 3 0.042 21.013299541340345 12.74227595557445 42.79797337980997 0 0 0
4620 1 1 0.165 21.05720089869807 16.170740968377533 43.405000595672426 0 0 0
4048 4 4 0.2007 15.25691811020424 16.86862048056713 41.75822425125231 0 1 0
3957 4 3 0.042 11.663972538249935 11.564331976880077 39.831724662067856 0 1 0
4758 4 4 0.2467 18.50342958651074 20.260771550931842 40.32698711597009 0 1 0
4760 4 7 -0.3748 19.65021665317493 20.56614775600937 39.630477116970525 0 1 0
4750 4 4 0.2077 14.786742593280316 17.738575554983093 42.763200602214305 0 1 0
4615 1 6 -0.0684 18.76006283951999 13.139035499057343 41.22532298079586 0 0 0
4622 1 6 -0.08550000000000001 20.22657801839735 13.216907092768587 43.35394565946281 0 0 0
4749 4 7 -0.3748 15.256887425426772 19.06772421876765 42.78856870224219 0 1 0
3961 4 1 0.167 15.16422947129212 14.858921051371098 41.06366589253241 0 1 0
5405 1 3 0.0592 17.940828696431737 15.384727513470374 38.8447829988591 0 0 0
4607 1 11 -0.1513 21.22478416582397 12.238177981186105 39.39875144371881 0 0 0
3958 4 11 -0.1513 14.752400859038286 15.556693631432326 41.770341202248034 0 1 0
4755 4 4 0.2467 16.74702431081626 18.607060118186244 40.893324409778984 0 1 0
3954 4 4 -0.0653 14.496877957248397 12.062990283007906 41.755541260855125 0 1 0
3550 12 3 0.042 11.51679158031195 17.405769228020304 38.10586218842427 0 1 0
4612 1 6 0.0466 19.243318945592065 13.827802780787898 39.874013507433645 0 0 0
4757 4 10 -0.1036 17.818232577268326 19.06175603121136 40.06496233461226 0 1 0
4759 4 5 0.2498 18.239599831552837 18.225036525066237 39.01566288073768 0 1 0
4614 1 4 -0.0713 20.137174112042842 15.000183085065354 40.316636032129594 0 0 0
4756 4 4 0.2467 18.04416183259853 21.09737105463571 41.37117712456108 0 1 0
3949 4 3 0.0592 11.42986688726446 13.162843055652298 41.47136857580078 0 1 0
3956 4 6 -0.008699999999999999 13.382298751476625 12.333202386502503 40.70542847573603 0 1 0
5409 1 3 0.042 17.43698054900434 15.048556117723907 42.54290681331934 0 0 0
3950 4 4 -0.0713 14.28326377359067 12.756650390210439 42.88541550991744 0 1 0
3955 4 3 0.0592 12.522801946365393 14.336524079069866 40.78272234254469 0 1 0
4619 1 6 -0.008699999999999999 19.308238648242533 14.047901673852104 42.4198366381538 0 0 0
3960 4 4 0.2077 16.322315024257634 10.882290441001873 42.77771220011256 0 1 0
3953 4 6 -0.08550000000000001 12.491157976285553 11.209522858441455 40.47573041693775 0 1 0
4608 1 1 0.167 20.758193277691507 15.776381047320971 38.374286495224524 0 0 0
4529 1 3 0.0592 17.74282431037754 12.954822192868116 41.365733491436 0 0 0
3963 4 6 -0.08550000000000001 14.074463485058386 12.82419025356597 39.44259891260755 0 1 0
4617 1 4 -0.0653 20.16231781935695 15.092260908356383 41.68449890299123 0 0 0
4753 4 10 -0.1026 16.909953918618747 20.74305156809537 42.13223712568347 0 1 0
4752 4 4 0.2457 16.347836478442296 19.472706680222913 42.01768017380756 0 1 0
4754 4 7 -0.3748 16.10253071312168 17.360040854296564 40.7235845198954 0 1 0
3952 4 6 -0.0684 12.494931051981434 13.447743553529545 41.36983427824217 0 1 0
3965 4 3 0.042 13.355288696389579 13.477543265944341 38.981536147522846 0 1 0
3948 4 6 0.0466 13.203115964602974 13.775190210685205 42.7672943128396 0 1 0
4618 1 11 -0.1583 20.95573893008837 16.110890722198995 42.29242561757456 0 0 0
4530 1 3 0.0592 19.24480470017266 12.10221636228692 41.180076697049884 0 0 0
3966 4 3 0.042 14.94402573341004 13.369916050726527 39.6545278737883 0 1 0
4610 1 11 -0.1513 20.884346231823706 15.840584651777835 39.500466232342674 0 0 0
5397 1 3 0.042 16.448043397933176 12.03691890993122 38.0301058696964 0 0 0
5404 1 6 -0.0684 18.05179338229445 14.302701564458603 38.94987356643591 0 0 0
4144 1 2 -0.3298 13.906868602671398 16.071753233336757 38.683665625633466 0 0 0
5411 1 6 -0.08550000000000001 18.18571016883765 14.78108418062899 43.22979690409829 0 0 0
4042 4 3 0.042 10.55720495666584 16.040905700169745 43.29160255712955 0 1 0
3962 4 1 0.165 15.73781423126892 10.620672130254643 40.73280451081415 0 1 0
3945 4 3 0.0592 11.24394579504737 13.716225237204831 43.39646844416749 0 1 0
4761 4 2 -0.3298 18.5073718894092 17.58748362070078 38.11448591407601 0 1 0
5566 9 4 0.2077 10.758511255977792 12.111798191332417 47.99766988306733 1 0 -1
5584 6 1 0.167 20.298748208436542 15.252250197448948 46.96635773623046 0 1 0
4933 6 4 0.2077 13.494921570053283 19.711998444027476 48.166370708369115 0 1 0
5666 6 7 -0.3748 17.593997231719047 15.208010500255 46.61012086568802 0 1 0
4037 4 3 0.042 11.094422748623547 17.28608502218937 44.35755594035494 0 1 0
4844 6 5 0.2498 17.133159387124316 17.79826217372601 45.32705294285793 0 1 0
3946 4 6 -0.0684 12.215759829587798 13.996861986194403 43.92162834664725 0 1 0
4941 6 7 -0.3748 15.042399914737825 19.261249814577674 46.33145603806436 0 1 0
5665 6 4 0.2007 18.270759554348242 14.723843346707804 47.791126843541164 0 1 0
4841 6 10 -0.1036 16.19212068809028 17.185362141185706 46.2066071567765 0 1 0
4687 4 4 0.2007 16.055391569880392 11.614643982296116 43.96232115128598 0 1 0
4111 4 6 -0.08550000000000001 12.60744687628717 15.405175002552248 45.94647238892052 0 1 0
4829 4 3 0.042 11.898690536523887 14.931661881888168 46.56204295850449 0 1 0
5568 9 4 0.2007 11.646374611238215 11.368753297918426 48.82152152544405 1 0 -1
5659 6 4 0.2467 15.682944784828674 15.551940450259657 47.92700799796497 0 1 0
5676 6 4 0.2077 20.913448470219045 19.748929429845376 48.178763855445155 0 1 0
4839 6 4 0.2457 14.38379721779355 17.530105514695332 47.88384414394047 0 1 0
4936 6 4 0.2007 14.300203985356557 20.15876735467544 47.10616736712106 0 1 0
5662 6 4 0.2467 16.455637479388013 15.905162463948583 46.81576262170369 0 1 0
5679 6 7 -0.3748 20.896295101620527 21.100212204662114 48.07503600077331 0 1 0
4683 4 1 0.167 14.771339301735534 12.82911600675449 45.00342750392952 0 1 0
4940 6 4 0.2467 15.117793095622279 17.96019936993948 46.75784851951702 0 1 0
4531 1 3 0.042 20.90428073338112 13.85879062848164 44.0278349131459 0 0 0
4043 4 4 -0.0653 13.345854359260596 16.056724740988408 43.63532827179643 0 1 0
4684 4 11 -0.1513 15.012138341479613 12.488882509930157 44.018893240336354 0 1 0
3944 4 3 0.0592 12.371717044270286 13.18353395907248 44.68304140198637 0 1 0
5668 6 11 -0.1513 19.693757287743704 14.798969245600787 47.809719096956776 0 1 0
4688 4 7 -0.3748 16.630003497920782 11.252878020117423 45.110813219054556 0 1 0
4110 4 3 0.042 12.622590534090053 16.448186367879398 46.29912398741613 0 1 0
4112 4 3 0.042 13.644505997032145 15.143781549271061 46.269083136745586 0 1 0
4848 6 2 -0.3298 17.93781483302753 18.38354667041005 44.763381809157465 0 1 0
4836 6 7 -0.3748 13.460790227799599 18.35235224699971 48.487404344422494 0 1 0
4039 4 6 -0.008699999999999999 12.26425172622124 15.447036233865862 44.455684950273344 0 1 0
4621 1 3 0.042 19.618490568617467 12.449485663975462 43.94608957098194 0 0 0
5412 1 3 0.042 18.511599798669074 15.750863830053792 43.65979959524787 0 0 0
4833 12 3 0.042 10.622404112443158 19.217090556567786 47.645997172878715 0 1 0
4041 4 1 0.165 13.519522279097561 18.143831732111238 44.38988721192162 0 1 0
4832 12 3 0.042 10.599843469653713 19.409949092447217 46.00346983091239 0 1 0
4044 4 11 -0.1583 13.820208111354507 17.39721678430716 43.643022078199415 0 1 0
4686 2 5 0.2498 21.149396757367093 10.728527674580837 47.52920974165561 0 0 -1
4040 4 6 -0.08550000000000001 10.948118236207943 16.209050039337644 44.302231231463246 0 1 0
5672 6 4 0.2007 19.797500060541914 19.074794707334696 48.72093207773865 0 1 0
5472 4 2 -0.3298 17.040868208054007 10.75759875640463 48.63378784704497 0 1 0
5657 6 10 -0.1026 14.643679618603304 16.321048456263796 48.494159834432935 0 1 0
4831 12 3 0.042 10.79678047630834 20.820424144425406 47.051135774991955 0 1 0
5658 6 7 -0.3748 16.092348521557188 14.501167703623508 48.74480073814297 0 1 0