LAMMPS data file via write_data, version 23 Jun 2022, timestep = 6042000

5995 atoms
11 atom types
6750 bonds
21 bond types
12402 angles
41 angle types
20432 dihedrals
120 dihedral types

10.747898422864523 54.25210157714547 xlo xhi
10.747898422864523 54.25210157714547 ylo yhi
10.747898422864523 54.25210157714547 zlo zhi

Masses

1 1.008
2 14.01
3 1.008
4 12.01
5 12.01
6 12.01
7 16
8 12.01
9 16
10 12.01
11 12.01

Pair Coeffs # lj/cut/coul/long

1 0.0161 2.62548
2 0.1098 3.27352
3 0.0208 2.60018
4 0.0988 3.31521
5 0.1596 3.47896
6 0.1078 3.39771
7 0.0726 3.1561
8 0.0988 3.31521
9 0.0726 3.1561
10 0.0988 3.31521
11 0.0988 3.31521

Bond Coeffs # harmonic

1 334.12 1.433
2 378.57 1.398
3 357.53 1.37
4 395.72 1.086
5 375.92 1.097
6 232.52 1.538
7 250.32 1.516
8 879.32 1.157
9 378.57 1.398
10 357.53 1.37
11 0 0
12 0 0
13 0 0
14 0 0
15 0 0
16 0 0
17 0 0
18 0 0
19 0 0
20 0 0
21 0 0

Angle Coeffs # harmonic

1 64.888 111.51
2 65.583 120.77
3 87.289 119.2
4 67.841 120.27
5 65.183 112.07
6 68.767 120.02
7 65.611 112.24
8 46.816 109.8
9 67.119 119.89
10 38.96 107.58
11 74.346 179.49
12 48.68 119.88
13 0 0
14 0 0
15 0 0
16 0 0
17 0 0
18 0 0
19 0 0
20 0 0
21 0 0
22 0 0
23 0 0
24 0 0
25 0 0
26 0 0
27 0 0
28 0 0
29 0 0
30 0 0
31 0 0
32 0 0
33 0 0
34 0 0
35 0 0
36 0 0
37 0 0
38 0 0
39 0 0
40 0 0
41 0 0

Dihedral Coeffs # fourier

1 1 0 2 180
2 1 3.625 2 180
3 1 0.155556 3 0
4 1 0 2 180
5 1 0.9 2 180
6 3 0.13 3 0 0.29 2 180 0.11 1 0
7 1 0.245 2 180
8 2 0.08 3 0 0.08 3 0
9 1 0 0 0
10 1 0 0 0
11 1 0 0 0
12 1 0 0 0
13 1 0 0 0
14 1 0 0 0
15 1 0 0 0
16 1 0 0 0
17 1 0 0 0
18 1 0 0 0
19 1 0 0 0
20 1 0 0 0
21 1 0 0 0
22 1 0 0 0
23 1 0 0 0
24 1 0 0 0
25 1 0 0 0
26 1 0 0 0
27 1 0 0 0
28 1 0 0 0
29 1 0 0 0
30 1 0 0 0
31 1 0 0 0
32 1 0 0 0
33 1 0 0 0
34 1 0 0 0
35 1 0 0 0
36 1 0 0 0
37 1 0 0 0
38 1 0 0 0
39 1 0 0 0
40 1 0 0 0
41 1 0 0 0
42 1 0 0 0
43 1 0 0 0
44 1 0 0 0
45 1 0 0 0
46 1 0 0 0
47 1 0 0 0
48 1 0 0 0
49 1 0 0 0
50 1 0 0 0
51 1 0 0 0
52 1 0 0 0
53 1 0 0 0
54 1 0 0 0
55 1 0 0 0
56 1 0 0 0
57 1 0 0 0
58 1 0 0 0
59 1 0 0 0
60 1 0 0 0
61 1 0 0 0
62 1 0 0 0
63 1 0 0 0
64 1 0 0 0
65 1 0 0 0
66 1 0 0 0
67 1 0 0 0
68 1 0 0 0
69 1 0 0 0
70 1 0 0 0
71 1 0 0 0
72 1 0 0 0
73 1 0 0 0
74 1 0 0 0
75 1 0 0 0
76 1 0 0 0
77 1 0 0 0
78 1 0 0 0
79 1 0 0 0
80 1 0 0 0
81 1 0 0 0
82 1 0 0 0
83 1 0 0 0
84 1 0 0 0
85 1 0 0 0
86 1 0 0 0
87 1 0 0 0
88 1 0 0 0
89 1 0 0 0
90 1 0 0 0
91 1 0 0 0
92 1 0 0 0
93 1 0 0 0
94 1 0 0 0
95 1 0 0 0
96 1 0 0 0
97 1 0 0 0
98 1 0 0 0
99 1 0 0 0
100 1 0 0 0
101 1 0 0 0
102 1 0 0 0
103 1 0 0 0
104 1 0 0 0
105 1 0 0 0
106 1 0 0 0
107 1 0 0 0
108 1 0 0 0
109 1 0 0 0
110 1 0 0 0
111 1 0 0 0
112 1 0 0 0
113 1 0 0 0
114 1 0 0 0
115 1 0 0 0
116 1 0 0 0
117 1 0 0 0
118 1 0 0 0
119 1 0 0 0
120 1 0 0 0

Atoms # full

5366 1 7 -0.3748 15.565255170448605 14.527566039821142 11.862684880190935 0 0 1
13 1 6 -0.008699999999999999 19.591713768353245 13.79931802692749 14.237170278276897 0 0 1
80 1 4 -0.0653 16.156816090242554 20.34596979041448 13.803689889266742 0 0 1
89 1 1 0.167 19.48672843650951 19.24777443018683 13.480704589959206 0 0 1
5467 1 3 0.042 20.65212528674492 18.413810510379264 11.079103563093788 0 0 1
5385 1 4 -0.0713 20.498488291683376 11.938725565569088 11.155066102340458 0 0 1
5451 1 1 0.167 15.632283365584101 16.871699414996428 12.84426088114562 0 0 1
5446 1 6 -0.008699999999999999 15.105617524002763 20.691667176649652 12.752433017023165 0 0 1
1 1 2 -0.3298 13.688390965503084 14.910113825971811 15.772966944995535 -1 1 0
5367 1 4 0.2467 15.530467610749959 13.355454565237777 11.227987441010136 0 0 1
17 1 3 0.042 20.071523014190234 12.466298185707059 15.952915069594207 0 0 1
5379 1 4 -0.0713 18.64706125728369 11.921517482524646 12.93143719979015 0 0 1
15 1 6 -0.08550000000000001 19.95807662232373 13.54535726899175 15.743983229594205 0 0 1
5440 1 3 0.042 12.949436320916112 20.53771549461034 12.224285094689668 0 0 1
5377 1 4 -0.0653 18.41414576682433 12.888237414917839 13.902142075254723 0 0 1
83 1 4 -0.0713 17.278280133268474 19.670155036638015 13.268860897935104 0 0 1
5383 1 6 0.0466 20.146424265894858 11.862197939519097 12.645068916607837 0 0 1
91 1 3 0.042 20.095213526102825 15.881975861288055 13.960382681665836 0 0 1
5452 1 11 -0.1513 16.388885056938552 16.73752741061826 12.041236190722827 0 0 1
5361 1 2 -0.3298 12.372988265399117 13.266923018394195 12.748426560986573 0 0 1
77 1 1 0.165 15.334617980419091 21.271371006137763 15.463303799111994 0 0 1
85 1 4 0.2007 18.541424750995187 20.130006237246924 15.290107283213246 0 0 1
5368 1 4 0.2007 16.447773710284146 15.496541863504445 11.441840280871732 0 0 1
10 1 11 -0.1583 17.181279557636078 12.873479565898197 14.568586764667653 0 0 1
5447 1 3 0.0592 14.886788016441795 18.757378940370458 11.637387329291865 0 0 1
5442 1 6 -0.08550000000000001 13.656281509391 20.39557615989393 13.075753524807226 0 0 1
12 1 6 -0.08550000000000001 19.172238677807215 15.228065638126047 13.944011193519568 0 0 1
5443 1 3 0.042 13.520414140319707 19.410106691594663 13.35932090100208 0 0 1
5364 1 10 -0.1036 14.351664236904211 12.566683019552217 11.354146949830447 0 0 1
11 1 3 0.042 18.417445025987877 15.556047009550081 14.657437363467952 0 0 1
86 1 11 -0.1513 18.539205378711664 19.597269865765576 13.957536226558226 0 0 1
5373 1 4 0.2077 16.200692236538075 11.943871823468452 14.205739860439476 0 0 1
9 1 1 0.165 16.964334525844937 13.582894147162214 15.335701124287795 0 0 1
14 1 3 0.042 20.910176606617313 13.948764525019111 15.924233088025105 0 0 1
5460 1 3 0.0592 18.62418944550371 20.60466972089111 11.332615838373494 0 0 1
5374 1 4 0.2007 16.51425686278835 10.865504115617037 13.357091487608042 0 0 1
79 1 11 -0.1583 16.19272516457448 20.738406418035453 15.12704898699305 0 0 1
5449 1 6 -0.0684 15.517426248683979 19.690030047794963 11.602536679807393 0 0 1
5457 1 6 -0.0684 17.94146459581451 19.926908673490836 10.777529213622655 0 0 1
5384 1 6 -0.0684 20.71771396490011 13.190674694858714 13.322850027378092 0 0 1
5453 1 6 0.0466 16.981907068561085 19.21738955047769 11.817499981300617 0 0 1
5375 1 3 0.042 18.780378874038718 15.318374347162887 12.938893219173679 0 0 1
73 1 11 -0.1583 11.453879254853437 19.87392227548826 15.34837024042496 -1 1 0
74 1 3 0.042 13.38355659671921 21.091705575360493 13.845033746261588 0 0 1
5362 1 5 0.2498 13.279110234349696 13.009299075110262 12.111140275843702 0 0 1
5454 1 4 -0.0713 17.176176370028656 17.748686966965685 11.51078923760809 0 0 1
71 1 4 -0.0653 10.87192239346076 21.099575619894473 15.305142457806115 -1 1 0
82 1 4 0.2077 17.331475329958987 20.540650912764644 15.933176062901879 0 0 1
634 1 4 0.2467 14.367926897782816 10.761585459849938 15.097261922309592 0 0 1
5 1 7 -0.3748 15.05863229565273 11.90631732525909 15.05335270352797 0 0 1
88 1 7 -0.3748 19.6777467699241 20.26683450268308 15.920706152145852 0 0 1
5376 1 11 -0.1513 17.704462922370375 10.955246664885907 12.613428590345642 0 0 1
5382 1 3 0.0592 20.940855111490684 13.911952517172054 12.508198094479363 0 0 1
72 1 1 0.165 10.993587223350747 19.03069198913827 14.81228506114026 -1 1 0
5387 1 4 -0.0653 21.085563590399595 10.805457539493993 10.751643714542531 0 0 1
4 1 10 -0.1026 14.380632973402324 16.74645375164239 17.479138321425182 -1 1 0
8 1 4 0.2007 16.29097660607893 14.559068189456333 19.594694674160692 -1 1 0
723 1 10 -0.1036 15.158632431858393 18.684276647310362 19.342285695377797 -1 1 0
3 1 4 0.2457 13.876545265369677 18.044453549475527 17.409297239724317 -1 1 0
7 1 7 -0.3748 15.54651222106789 15.041951516820491 18.577560474956645 -1 1 0
1236 5 7 -0.3748 11.283355844858178 11.882350698965713 19.89165063628287 0 1 0
726 1 2 -0.3298 15.799899484095851 20.45873745623002 21.09055944571494 -1 1 0
632 1 5 0.2498 13.460160774138526 11.603652167876417 17.20332579880284 0 0 1
1208 1 1 0.167 19.85579296534524 12.559973037820388 20.109215014115364 -1 1 0
727 1 7 -0.3748 16.22160632031376 16.779788890811865 20.61164143761026 -1 1 0
766 1 6 -0.08550000000000001 21.563791000514307 17.154106409598104 18.873695186062612 -1 1 0
87 1 4 0.2467 19.818416956764523 21.052039710601832 17.036164366371743 0 0 1
84 1 4 0.2467 18.625771114609233 21.542348157265145 17.619506319376026 0 0 1
725 1 4 0.2467 15.539554311579316 17.267190498915994 19.52395119296782 -1 1 0
1185 5 7 -0.3748 11.957478627112792 14.49628196451977 20.38734958416408 0 1 0
728 1 4 0.2077 16.60638008399418 15.45115843449523 20.694631320589362 -1 1 0
722 1 4 0.2467 14.261225651002913 19.039241728967262 18.33627191560134 -1 1 0
652 1 4 0.2007 20.347827985572508 11.07559585920449 18.6317741101822 -1 1 0
639 1 1 0.167 16.327654372312626 12.54931265185681 18.838511475404108 -1 1 0
16 1 3 0.042 19.247025941497746 13.951572791914433 16.483007381450783 0 0 1
724 1 5 0.2498 15.53515525223152 19.66162412670613 20.310518249715933 -1 1 0
631 1 2 -0.3298 13.595758225313503 12.339753635519761 18.07913504861442 0 0 1
756 1 7 -0.3748 13.882927996308908 20.34981186729626 18.113374686851834 -1 1 0
6 1 4 0.2467 15.174342793639802 16.351358075724555 18.547221820078263 -1 1 0
640 1 11 -0.1513 16.547395996292103 13.211114769884407 19.724745764643718 -1 1 0
649 1 11 -0.1513 19.578877442524792 11.57797143801505 19.706411145837222 -1 1 0
624 5 4 0.2077 10.907472222995981 14.279529444226213 19.541150230380854 0 1 0
729 1 3 0.042 20.772990745455132 17.85715776966714 18.599925777586037 -1 1 0
90 1 10 -0.1036 21.135067395699224 21.529675905847537 17.43098672332952 0 0 1
641 1 4 -0.0713 17.154595625237945 12.686048309025358 20.943901760247496 -1 1 0
1209 1 7 -0.3748 21.33307104031561 11.810153735430424 18.06147829773436 -1 1 0
647 1 4 -0.0713 18.46964566086794 10.883783309876828 20.164615369948404 -1 1 0
76 1 4 0.2077 12.463014912187223 19.630957674256464 16.28218933513629 -1 1 0
1184 5 4 0.2467 12.191414514906654 12.193593999815722 20.928386741612407 0 1 0
755 1 4 0.2007 12.942292361888068 20.614253922841225 17.14137795250429 -1 1 0
81 1 7 -0.3748 17.386518805390367 21.143597207533155 17.191315724035675 0 0 1
2 1 5 0.2498 13.895751032589594 15.737337097857 16.521639330212338 -1 1 0
78 1 7 -0.3748 12.95877401965116 18.348525224880134 16.404760896995857 -1 1 0
642 1 6 0.0466 17.539862082203456 11.34293929857659 21.21459829547541 -1 1 0
768 1 3 0.042 21.03815397518659 16.299659259398773 19.355817256100284 -1 1 0
1187 5 4 0.2467 12.571374069817244 13.506765772814044 21.17961188646649 0 1 0
800 1 3 0.042 11.24151494072485 17.83939501935454 20.734882901321015 0 0 0
762 1 3 0.042 21.417243146051188 19.408252189553288 20.48668320787747 -1 1 0
635 1 3 0.0592 15.522593303414169 10.786190485817407 20.638494333491856 -1 1 0
1851 1 4 -0.0713 21.016185488869304 16.24036746604988 25.87619517630661 -1 1 0
1191 5 5 0.2498 13.57161595857782 15.194829817347163 22.587340048939083 0 1 0
1194 1 3 0.042 16.63779626650951 12.534086188511054 24.225500225498934 -1 1 0
1198 1 6 -0.008699999999999999 18.29593972086529 12.909287568393216 23.054666757147274 -1 1 0
1833 1 6 -0.08550000000000001 17.104354663269493 18.5405373942843 23.689465318297124 -1 1 0
1193 1 3 0.042 18.104031557173496 12.78009907379276 25.297140212800464 -1 1 0
1660 5 4 0.2077 14.179050223928815 12.29051935011292 25.483759820879133 0 1 0
1832 1 3 0.042 16.40841099837666 19.384784654386113 23.685970513775608 -1 1 0
1391 1 1 0.167 12.615560970044172 18.789707882378714 24.622956993098704 0 0 0
1742 1 7 -0.3748 20.38912429188631 12.697083207959254 26.83142852068077 -1 1 0
1846 1 6 0.0466 20.341779881481152 17.614365374297954 25.500045400817584 -1 1 0
1203 1 3 0.042 19.757923652903894 14.595172070135403 23.429892843424867 -1 1 0
1385 1 6 -0.0684 10.874503957621181 19.90765790894339 22.49569078460348 0 0 0
1744 1 4 0.2467 21.216263056001374 11.499461457115276 26.74126493169164 -1 1 0
1739 1 1 0.167 19.21061658454396 15.110876840373852 26.165686657790197 -1 1 0
1392 1 4 0.2007 13.289545916731113 19.896742067725484 26.32262081561522 0 0 0
1843 1 6 -0.0684 19.488075729330284 17.548567920929525 24.213033964719322 -1 1 0
1188 5 4 0.2457 13.656379195524263 12.832326848772237 23.271461213197234 0 1 0
1195 1 3 0.042 17.259497989097035 14.165321128153373 24.377854827492953 -1 1 0
1202 1 6 -0.0684 18.2210183820544 11.363847306019164 22.663203823425057 -1 1 0
1245 5 11 -0.1583 14.56708174889976 12.646521248772125 26.7953490740967 0 1 0
1204 1 6 -0.08550000000000001 19.777443122041692 13.515973737651251 23.16717866171053 -1 1 0
1838 1 6 -0.008699999999999999 18.492224996227076 18.819306192184037 24.301475814978627 -1 1 0
1388 1 3 0.0592 11.873570688893023 19.49608503153962 22.643599948946182 0 0 0
1837 1 11 -0.1583 17.754106849505547 19.971749990847872 26.49209417761362 -1 1 0
1842 1 3 0.0592 18.86713878880598 16.640084418074263 24.174229768103213 -1 1 0
1196 1 6 -0.08550000000000001 17.534068284982304 13.078217947674155 24.375447043252578 -1 1 0
1840 1 4 -0.0653 18.44207140930175 18.96329400690219 25.80355428056559 -1 1 0
1189 5 10 -0.1026 13.260256895228833 13.83190055409902 22.35494904288364 0 1 0
1835 1 3 0.042 17.256086373100082 18.167799132709224 22.64904503146717 -1 1 0
1190 5 7 -0.3748 14.295408195602164 13.138896069243021 24.43407164337841 0 1 0
1183 5 10 -0.1036 12.534470410050437 11.196742768443455 21.810974356445165 0 1 0
1292 1 3 0.042 19.234013733130077 20.15713578006569 22.569298385062254 -1 1 0
1390 1 11 -0.1513 12.467932172542588 19.643981861361247 25.21421589155502 0 0 0
1293 1 6 -0.08550000000000001 19.096515678667096 20.177975817296257 23.673771480237107 -1 1 0
799 1 3 0.042 11.064413503172107 17.08932863952556 22.339218848997433 0 0 0
1295 1 3 0.0592 20.122009850101918 17.608034069742963 23.298684857687093 -1 1 0
1848 1 3 0.0592 21.579605464879137 19.356084837645945 26.13578347657249 -1 1 0
1205 1 3 0.042 20.170746424271968 13.332985534952087 22.19168985545968 -1 1 0
1740 1 11 -0.1513 20.310017555973666 15.056157848710615 26.292930502161095 -1 1 0
1393 1 7 -0.3748 14.20446543563381 18.88471793715484 26.719869318367174 0 0 0
1831 1 3 0.042 16.62446035834012 17.73852319820254 24.2696450121244 -1 1 0
1207 1 3 0.042 20.364019153257352 13.046618507417637 23.96576587053805 -1 1 0
721 5 2 -0.3298 13.86039468718719 16.3266820086599 22.823394291035775 0 1 0
1201 1 4 -0.0653 17.618020774664966 13.5996764580593 21.88712662868422 -1 1 0
1200 1 1 0.165 17.626221619626804 15.674173856909293 22.53389505067385 -1 1 0
1199 1 11 -0.1583 17.381954157777407 14.999319599057813 21.750044660551048 -1 1 0
1294 1 3 0.042 20.054611224621212 20.488235873384422 24.246727025977435 -1 1 0
1836 1 3 0.042 18.34821401903688 20.958307223715938 23.806765551876445 -1 1 0
1387 1 4 -0.0713 11.365514125820866 20.465734914369566 25.027847403447907 0 0 0
1186 5 4 0.2467 13.228716891714203 11.527173768036132 22.981060781509566 0 1 0
1206 1 3 0.0592 19.23697184421638 10.961111326478603 22.619762006090376 -1 1 0
1291 1 2 -0.3298 16.170786757825333 15.954236259948324 26.937618660725267 0 0 0
1741 1 4 0.2007 21.039441500507078 13.883356950144544 26.65223078726737 -1 1 0
1820 1 3 0.042 11.803767981809413 16.285620932496656 26.967657134465032 0 0 0
1659 5 4 0.2007 13.657362232846543 10.958577249881072 25.245550559962023 0 1 0
1834 1 1 0.165 17.022641009202772 20.72493403574568 26.016080200494955 -1 1 0
1845 1 4 -0.0713 19.417795658864204 18.27937954712622 26.49030064695588 -1 1 0
876 1 3 0.0592 10.89835670882377 20.74884380532348 21.730624386972437 0 0 0
1197 1 3 0.0592 17.732509896523947 10.749981016124325 23.446033230455008 -1 1 0
1849 1 6 -0.0684 21.58932036599298 18.531597019902765 25.36748731985596 -1 1 0
1386 1 4 -0.0653 11.097459418829095 21.594356810272064 25.769895067413408 0 0 0
1246 5 1 0.165 15.008968753331043 13.619180798279565 27.003811229059988 0 1 0
1249 5 3 0.042 16.491590913985657 11.128680279717939 29.173977829050465 0 1 0
1830 1 1 0.165 17.344471513179556 14.648344207051032 31.697402663915536 0 0 0
1250 5 3 0.042 16.28607103068496 12.029657995395935 30.71962653080917 0 1 0
1829 1 11 -0.1583 16.960082290181816 15.35535538142073 32.346654571101425 0 0 0
1819 1 3 0.042 12.285524167578961 14.919440229425335 27.897268528699637 0 0 0
1914 1 4 0.2467 14.640674016970948 18.92103553983508 28.002958608306457 0 0 0
2589 1 4 0.2467 18.22286220310588 19.992584291088665 30.656712598238457 -1 1 0
1906 1 6 -0.0684 11.842363681031163 16.37771830986828 30.50396924656341 0 0 0
1912 1 4 0.2467 14.236971782466991 19.957105812996872 28.88074933138796 0 0 0
1818 1 6 -0.08550000000000001 12.142431416821353 16.039967604168705 27.96237347744525 0 0 0
1847 1 11 -0.1513 19.46554683616064 18.201635564394703 27.873907413383925 -1 1 0
1823 1 5 0.2498 15.805454951683355 16.746559011568152 27.65669424482606 0 0 0
1859 6 11 -0.1513 21.567805496845253 20.720622493031733 29.0576144171021 0 1 0
1892 6 3 0.042 10.965908935950822 21.58329336832349 30.07186424155079 0 1 0
2590 1 7 -0.3748 18.547763041115864 18.840434071388987 29.950986643754128 -1 1 0
1240 5 6 -0.08550000000000001 13.859988314209728 13.306340904072341 29.90644305194398 0 1 0
1816 1 1 0.167 11.350827002138312 13.141160221525224 31.60113790287017 0 0 0
1243 5 6 -0.008699999999999999 14.516131613114554 12.032860556952068 29.372584863398078 0 1 0
1910 1 3 0.0592 12.630757995567587 15.560316453383754 30.432724874503 0 0 0
1844 1 4 0.2007 18.54863282828998 18.954416320456808 28.599664927614093 -1 1 0
1826 1 7 -0.3748 16.13015899295751 16.569656726031035 30.39331566842658 0 0 0
1850 1 1 0.167 20.198466694649557 17.619090830150423 28.41661880452063 -1 1 0
1248 5 6 -0.08550000000000001 16.0275469512749 12.01625819842976 29.63791120692653 0 1 0
1828 1 4 0.2077 16.34575047794965 16.494866434055066 31.79783829354274 0 0 0
1989 1 4 0.2077 13.00760857386207 21.004385535456347 27.163752495031897 0 0 0
1822 1 4 0.2467 15.084126145286547 18.721511919514803 30.740262181791458 0 0 0
1841 1 4 0.2077 17.85907327073344 19.95220769363489 27.92175556702568 -1 1 0
1824 1 4 0.2457 15.488743131380211 17.686266725929126 29.873864384768762 0 0 0
1821 1 10 -0.1026 15.332443192171095 17.824909941769263 28.511295538602482 0 0 0
1911 1 3 0.042 13.122202700166977 16.43564594542586 28.062234919722517 0 0 0
1247 5 3 0.042 16.48268401761242 12.932294780311892 29.168402373657592 0 1 0
1290 5 3 0.042 13.771686549351578 13.33947900578765 30.926890815820645 0 1 0
1239 5 3 0.042 14.423056832534215 14.145103636085338 29.506279819386283 0 1 0
1238 5 3 0.0592 12.947146471902725 10.90353113782445 30.677462993280816 0 1 0
1991 1 2 -0.3298 13.34909088159257 21.49820358489665 31.894387559868587 0 0 0
1825 1 7 -0.3748 15.126263623198533 18.548702860162734 32.09714503448261 0 0 0
1990 1 7 -0.3748 13.352860809078532 20.946407309031514 28.455858377140746 0 0 0
1915 1 10 -0.1036 14.31628357170305 19.7566819502853 30.282335869977302 0 0 0
1244 5 4 -0.0653 14.205500484433504 11.76156381340505 27.875472361505366 0 1 0
1242 5 3 0.042 12.863145309397344 13.393364248523149 29.585382436142254 0 1 0
1913 1 5 0.2498 13.762826719662662 20.72000929142504 31.182222660550952 0 0 0
1905 1 3 0.0592 12.512861426357443 17.230342090590135 30.857398401649284 0 0 0
1909 1 3 0.042 11.29247906147633 18.66506299093759 29.344107746649534 0 0 0
1839 1 7 -0.3748 17.314367796614437 21.00429399127875 28.674749711959432 -1 1 0
1315 1 3 0.042 10.779491909379539 18.31803193330599 27.720090535010076 0 0 0
1908 1 6 -0.008699999999999999 11.167601969647722 16.531750521768874 29.051377078131093 0 0 0
2676 1 4 0.2457 17.60989706966257 21.080547570930662 29.999474420229497 -1 1 0
2591 1 10 -0.1036 18.601229005241862 20.13913900511539 31.997728247891686 -1 1 0
2492 1 3 0.042 16.91892513546531 12.354663663254726 33.10220385555379 0 0 0
2565 1 7 -0.3748 11.705322198373189 13.06097914907918 36.19661961121009 0 0 0
2657 1 3 0.042 11.864846659806396 17.91020506318241 35.10310467443397 0 0 0
2577 1 1 0.167 15.802101121662423 18.166511943502098 34.774864588430745 0 0 0
2578 1 4 -0.0653 17.02256512039112 15.207640173459517 33.7725421899244 0 0 0
2592 1 5 0.2498 19.199085697022312 18.987335055095173 32.58202260596405 -1 1 0
2583 1 6 -0.008699999999999999 18.268547701817866 17.56500550673301 37.408325879416836 0 0 0
2498 1 6 -0.08550000000000001 19.04193752709984 13.866711210037622 34.29054792375449 0 0 0
2582 1 3 0.0592 18.919221114681008 16.705816036387354 35.49868543112353 0 0 0
2661 1 3 0.042 11.288273575461975 19.13874993685893 34.01009213588179 0 0 0
2587 1 3 0.042 17.644039293134064 18.81807541088842 35.82195364748589 0 0 0
1736 1 3 0.042 19.3142303743347 13.367749662489587 33.363444637141654 0 0 0
2580 1 6 0.0466 17.04344751389219 15.792013522041735 36.03438354664737 0 0 0
2584 1 6 -0.0684 18.472875102996916 16.356217762316696 36.419940398411725 0 0 0
2660 1 3 0.042 12.317855716548568 17.870950739510175 33.47657560055268 0 0 0
2500 1 3 0.042 19.456185106097625 13.253286318792131 35.06053475081296 0 0 0
2566 1 4 0.2007 11.705101233112305 12.960597143450164 33.758284743100795 0 0 0
2567 1 4 0.2467 12.043449292296616 11.733960222255991 36.215012470518076 0 0 0
2581 1 6 -0.0684 17.096182888747272 14.32936877209961 35.967674986314336 0 0 0
2570 1 4 0.2467 12.208848962146364 10.999467254148934 34.994189970814844 0 0 0
2575 1 4 -0.0713 16.261830433091973 16.32004485995023 37.173570946497776 0 0 0
2496 1 3 0.0592 16.00107596694789 14.039713027262875 36.14815657614683 0 0 0
2499 1 3 0.0592 17.741912825504606 13.789829499469208 36.6352935464525 0 0 0
3337 1 3 0.042 19.204869054176832 19.251048177812912 36.471403911027686 0 0 0
2495 1 3 0.042 15.649497596421064 12.787258714422492 34.150951734811215 0 0 0
2493 1 3 0.042 16.960051720542275 11.932457799023219 34.82697784844518 0 0 0
2576 1 11 -0.1513 16.062148339710237 17.3643024799578 34.066283479716475 0 0 0
2494 1 6 -0.08550000000000001 16.715493731572735 12.66257901367334 34.11872933145524 0 0 0
2497 1 6 -0.008699999999999999 17.485832785433296 13.955570993363668 34.53410979459409 0 0 0
2579 1 4 -0.0713 16.6248545233023 16.190459766544542 34.59397698930281 0 0 0
2585 1 3 0.042 19.444872186639444 14.913442149671553 34.34737382361567 0 0 0
2573 1 1 0.167 14.379822383927463 15.199458723777163 36.920342180828186 0 0 0
2593 1 2 -0.3298 19.524531020752775 18.10140456760307 33.20310549880121 -1 1 0
2569 1 7 -0.3748 12.111406387996915 11.615633057897869 33.72571663555189 0 0 0
3333 1 6 -0.08550000000000001 18.198114245161744 18.95038938586503 36.69900331274994 0 0 0
2586 1 3 0.0592 19.129566913787702 15.596734432941066 36.82267027042939 0 0 0
2561 1 1 0.165 11.024995605931382 15.634922801356552 35.90590723477733 0 0 0
2562 1 4 -0.0653 10.836203047252495 15.641064688793685 33.80561266800355 0 0 0
2574 1 11 -0.1513 14.891952908043832 15.903702142860684 37.538910639699424 0 0 0
1827 1 4 0.2007 15.843301697757386 17.490393055527925 32.66671837926518 0 0 0
2564 1 4 0.2077 11.478984679045324 13.66908176051511 34.977247466012734 0 0 0
2563 1 11 -0.1583 11.17595329708073 15.0328447607974 34.998575521389796 0 0 0
2679 1 4 0.2467 18.621999890314726 21.34740307731971 32.63218044416557 -1 1 0
3409 4 2 -0.3298 13.313679916323796 20.853448931422776 36.754660880977724 1 0 0
2568 1 10 -0.1026 12.2089663397144 11.146975359386582 37.46405450261942 0 0 0
3261 6 3 0.0592 21.61171816609726 10.812388345740963 35.16569437505325 0 1 0
2659 1 6 -0.08550000000000001 11.480853734707706 18.054391625537715 34.094903414756544 0 0 0
3331 1 3 0.042 17.596482395879665 19.66398984694205 37.28072833662894 0 0 0
2682 1 7 -0.3748 19.26125948370477 21.48551521402471 33.882146533897554 -1 1 0
3408 4 5 0.2498 12.472748466864113 21.55196944677354 36.4361995987833 1 0 0
3255 6 3 0.0592 20.17459183688132 10.791088078029112 36.262614539419374 0 1 0
1813 1 4 -0.0713 11.055155444266324 15.040289163617068 32.58098194134514 0 0 0
1815 1 11 -0.1513 11.43599757711088 13.688986404970203 32.54108265983096 0 0 0
3402 1 4 0.2467 12.316677499464818 16.745346301118555 39.908848277342685 0 0 0
3976 1 2 -0.3298 12.427364067260553 14.23413315690648 42.15542657556955 0 0 0
3326 1 11 -0.1583 16.18926067552892 17.99443108873675 38.95378340571179 0 0 0
3258 6 6 -0.0684 21.38616332031602 11.844420430064114 38.451494559803805 0 1 0
3251 1 3 0.0592 18.918196945890337 11.537999589105292 41.167358332303884 0 0 0
3335 1 3 0.042 20.507380663719676 17.776010649097973 37.99636510322733 0 0 0
3246 1 3 0.0592 17.885365357236726 12.182009108805893 40.151377838318055 0 0 0
3325 1 4 0.2077 14.920133870203959 17.483249300327962 39.3897330793169 0 0 0
4062 1 3 0.0592 15.31837967394015 13.387314887719088 41.96282833162123 0 0 0
4128 1 5 0.2498 12.88941864253945 19.164521561145087 42.70855344526405 0 0 0
3334 1 3 0.042 18.628304790714296 15.425103115117977 41.14722613970435 0 0 0
3329 1 6 -0.0684 16.404038824928467 13.620237867468532 41.80785342299281 0 0 0
4000 6 3 0.042 20.803589544769657 15.03209773241317 40.02822261516753 0 1 0
3336 1 6 -0.08550000000000001 19.49116478793195 17.665711044450468 38.44561101845451 0 0 0
4073 1 3 0.042 17.312774518497527 16.571123840618498 41.17583588571539 0 0 0
3253 6 3 0.042 19.81847118251514 14.231513994141736 38.64468345664065 0 1 0
3405 1 4 0.2467 12.914942373461617 17.731343691508336 40.71309683492085 0 0 0
3338 1 6 -0.08550000000000001 17.843006502494053 15.909694089270113 41.80239090631322 0 0 0
3324 1 7 -0.3748 14.24548940280431 18.096482863446102 40.40222644068277 0 0 0
3330 1 3 0.0592 16.500513726174326 13.757849038603867 40.75451294587863 0 0 0
3403 1 10 -0.1036 12.22247296226001 18.20562406622548 41.89484832232114 0 0 0
3999 6 3 0.042 20.056216907302094 13.330476678513168 40.224818491419725 0 1 0
3321 1 5 0.2498 12.00064122874554 11.926144533631977 38.69943343982494 0 0 0
3332 1 3 0.042 19.340693982240765 18.501698801273292 39.13443390792179 0 0 0
2588 1 3 0.042 19.659997037789825 16.750933924812497 38.99687217090796 0 0 0
3256 6 6 -0.08550000000000001 20.501114431866117 14.069370583457799 39.50372807568203 0 1 0
3401 1 4 0.2467 10.913829004359576 17.71221824382673 42.126158033997136 0 0 0
3320 1 2 -0.3298 11.889417018232379 12.528525067788763 39.67131969404031 0 0 0
4245 4 1 0.165 12.32345250294141 21.465345459816945 40.84227934211279 1 0 0
3404 1 7 -0.3748 12.982168883747072 16.25601021516492 38.81612344471438 0 0 0
3244 1 6 0.0466 17.16440996333061 12.307284878070886 42.25392250897575 0 0 0
3328 1 1 0.165 16.72388359059934 18.89382924952009 39.40135743357957 0 0 0
3240 1 3 0.042 15.508580855023794 10.89887585417346 39.80877655047783 0 0 0
4063 1 3 0.042 14.927133115051612 15.699323301082696 42.62803287045968 0 0 0
4067 1 6 -0.008699999999999999 17.003328117388598 14.875851835274833 42.59363462050159 0 0 0
3400 1 10 -0.1026 11.100997739499967 16.112990481475123 40.32641003421776 0 0 0
3247 1 6 -0.0684 17.852798598165997 11.60290696879101 41.01105031784368 0 0 0
3254 6 3 0.0592 20.340861096343588 11.646167934016697 38.22936671380739 0 1 0
3339 1 3 0.042 18.38303663687612 16.49940833074287 42.54811380474442 0 0 0
3991 1 4 -0.0713 16.309287030237456 11.193143820242824 42.8750214773101 0 0 0
3978 1 5 0.2498 12.344632424453376 13.449815743198258 43.00556444564686 0 0 0
3259 6 3 0.0592 21.607347145814323 11.098851063613864 39.206006456226035 0 1 0
4057 1 7 -0.3748 10.86640316182025 11.016933759533474 43.03125986353806 0 0 0
3323 1 4 0.2007 14.256215082815316 16.537593799544478 38.60520111554763 0 0 0
3992 1 4 -0.0713 18.120336406208 12.80855973666674 43.356662083700314 0 0 0
3327 1 4 -0.0653 16.891582351224745 17.255415182717883 37.944513095546995 0 0 0
4065 1 6 -0.08550000000000001 15.80675795789884 15.551747157854395 43.252402732712135 0 0 0
4059 1 4 0.2007 13.79670320618252 14.850720506470807 46.70843543998667 0 0 0
4066 1 3 0.042 15.477885368042841 14.954828944562658 44.13207895070569 0 0 0
3994 1 1 0.167 18.97979590516077 10.950499644484587 43.86089953351844 0 0 0
3984 1 7 -0.3748 13.522740489881972 14.282514988602074 45.46509539142729 0 0 0
3981 1 10 -0.1026 12.01032069429658 11.038499732596922 46.49867185087482 0 0 0
4701 1 4 0.2467 20.0253818431418 13.595086100905869 47.757991287832596 0 0 0
4808 1 3 0.042 19.393966642332344 18.738282987272235 48.59777160110432 0 0 0
3998 1 4 0.2467 20.29194326322868 12.285406938849434 47.44507033970642 0 0 0
4880 1 4 0.2007 14.062422309956258 21.016953865391937 46.40738467597265 0 0 0
4061 1 1 0.167 14.390194334842816 16.81001045191861 45.8768188705512 0 0 0
4691 1 7 -0.3748 13.024565066509984 12.84997017882206 47.79518974605138 0 0 0
3996 1 4 0.2007 19.45860733793593 12.518110611394926 45.322695050533675 0 0 0
4060 1 11 -0.1513 14.236574442566265 16.231937114608197 46.808812379953935 0 0 0
3988 1 1 0.167 15.76693400510277 12.249080555561848 44.57089028733091 0 0 0
4791 1 11 -0.1513 13.934459012252761 19.804183764197703 47.116042797729186 0 0 0
4885 1 1 0.165 17.4203647606665 21.22814577603365 46.04871696631336 0 0 0
4075 1 7 -0.3748 19.636509258324327 14.492740065331489 46.748641671227126 0 0 0
4069 1 4 -0.0653 17.889620880442024 14.162940932803776 43.56605439748127 0 0 0
4135 1 3 0.042 18.75696077971356 18.961104234098663 45.88915883544817 0 0 0
4796 1 4 -0.0713 15.111740114333088 19.140711209373016 47.47053580187786 0 0 0
3982 1 4 0.2467 12.769214991292646 13.115998121047236 45.375932951003286 0 0 0
3989 1 11 -0.1513 15.652310524828334 11.285103378027829 44.07375139347735 0 0 0
4071 1 1 0.165 18.240846753066474 15.759454235866148 44.884207977823486 0 0 0
4793 1 4 -0.0713 14.521053309853345 16.7466580866433 48.09743168884708 0 0 0
4068 1 3 0.0592 17.01372406828553 16.642439842215992 47.751290065891105 0 0 0
4810 1 3 0.042 18.82191912689569 20.350441491097413 47.841525592024006 0 0 0
4055 1 3 0.042 11.029646809119882 15.292725924636926 47.59870313247288 0 0 0
4134 1 6 -0.08550000000000001 18.144490443433483 18.162885712840822 46.37331870724395 0 0 0
3995 1 4 0.2077 19.21387247275147 13.920144520780406 45.57078772315816 0 0 0
4790 1 1 0.167 13.001038057325081 19.315499273775934 47.52129011618891 0 0 0
4072 1 11 -0.1583 18.416590567812772 14.7142076029636 44.752052553948914 0 0 0
3983 1 4 0.2467 12.642576666649557 12.317367615503512 46.52391858487283 0 0 0
4809 1 6 -0.08550000000000001 18.502684078592466 19.43665313824498 48.357108311844215 0 0 0