LAMMPS data file via write_data, version 23 Jun 2022, timestep = 6042000

6050 atoms
11 atom types
6808 bonds
21 bond types
12504 angles
41 angle types
20590 dihedrals
120 dihedral types

10.557600154301195 54.44239984569248 xlo xhi
10.557600154301195 54.44239984569248 ylo yhi
10.557600154301195 54.44239984569248 zlo zhi

Masses

1 1.008
2 14.01
3 1.008
4 12.01
5 12.01
6 12.01
7 16
8 12.01
9 16
10 12.01
11 12.01

Pair Coeffs # lj/cut/coul/long

1 0.0161 2.62548
2 0.1098 3.27352
3 0.0208 2.60018
4 0.0988 3.31521
5 0.1596 3.47896
6 0.1078 3.39771
7 0.0726 3.1561
8 0.0988 3.31521
9 0.0726 3.1561
10 0.0988 3.31521
11 0.0988 3.31521

Bond Coeffs # harmonic

1 334.12 1.433
2 378.57 1.398
3 357.53 1.37
4 395.72 1.086
5 375.92 1.097
6 232.52 1.538
7 250.32 1.516
8 879.32 1.157
9 378.57 1.398
10 357.53 1.37
11 0 0
12 0 0
13 0 0
14 0 0
15 0 0
16 0 0
17 0 0
18 0 0
19 0 0
20 0 0
21 0 0

Angle Coeffs # harmonic

1 64.888 111.51
2 65.583 120.77
3 87.289 119.2
4 67.841 120.27
5 65.183 112.07
6 68.767 120.02
7 65.611 112.24
8 46.816 109.8
9 67.119 119.89
10 38.96 107.58
11 74.346 179.49
12 48.68 119.88
13 0 0
14 0 0
15 0 0
16 0 0
17 0 0
18 0 0
19 0 0
20 0 0
21 0 0
22 0 0
23 0 0
24 0 0
25 0 0
26 0 0
27 0 0
28 0 0
29 0 0
30 0 0
31 0 0
32 0 0
33 0 0
34 0 0
35 0 0
36 0 0
37 0 0
38 0 0
39 0 0
40 0 0
41 0 0

Dihedral Coeffs # fourier

1 1 0 2 180
2 1 3.625 2 180
3 1 0.155556 3 0
4 1 0 2 180
5 1 0.9 2 180
6 3 0.13 3 0 0.29 2 180 0.11 1 0
7 1 0.245 2 180
8 2 0.08 3 0 0.08 3 0
9 1 0 0 0
10 1 0 0 0
11 1 0 0 0
12 1 0 0 0
13 1 0 0 0
14 1 0 0 0
15 1 0 0 0
16 1 0 0 0
17 1 0 0 0
18 1 0 0 0
19 1 0 0 0
20 1 0 0 0
21 1 0 0 0
22 1 0 0 0
23 1 0 0 0
24 1 0 0 0
25 1 0 0 0
26 1 0 0 0
27 1 0 0 0
28 1 0 0 0
29 1 0 0 0
30 1 0 0 0
31 1 0 0 0
32 1 0 0 0
33 1 0 0 0
34 1 0 0 0
35 1 0 0 0
36 1 0 0 0
37 1 0 0 0
38 1 0 0 0
39 1 0 0 0
40 1 0 0 0
41 1 0 0 0
42 1 0 0 0
43 1 0 0 0
44 1 0 0 0
45 1 0 0 0
46 1 0 0 0
47 1 0 0 0
48 1 0 0 0
49 1 0 0 0
50 1 0 0 0
51 1 0 0 0
52 1 0 0 0
53 1 0 0 0
54 1 0 0 0
55 1 0 0 0
56 1 0 0 0
57 1 0 0 0
58 1 0 0 0
59 1 0 0 0
60 1 0 0 0
61 1 0 0 0
62 1 0 0 0
63 1 0 0 0
64 1 0 0 0
65 1 0 0 0
66 1 0 0 0
67 1 0 0 0
68 1 0 0 0
69 1 0 0 0
70 1 0 0 0
71 1 0 0 0
72 1 0 0 0
73 1 0 0 0
74 1 0 0 0
75 1 0 0 0
76 1 0 0 0
77 1 0 0 0
78 1 0 0 0
79 1 0 0 0
80 1 0 0 0
81 1 0 0 0
82 1 0 0 0
83 1 0 0 0
84 1 0 0 0
85 1 0 0 0
86 1 0 0 0
87 1 0 0 0
88 1 0 0 0
89 1 0 0 0
90 1 0 0 0
91 1 0 0 0
92 1 0 0 0
93 1 0 0 0
94 1 0 0 0
95 1 0 0 0
96 1 0 0 0
97 1 0 0 0
98 1 0 0 0
99 1 0 0 0
100 1 0 0 0
101 1 0 0 0
102 1 0 0 0
103 1 0 0 0
104 1 0 0 0
105 1 0 0 0
106 1 0 0 0
107 1 0 0 0
108 1 0 0 0
109 1 0 0 0
110 1 0 0 0
111 1 0 0 0
112 1 0 0 0
113 1 0 0 0
114 1 0 0 0
115 1 0 0 0
116 1 0 0 0
117 1 0 0 0
118 1 0 0 0
119 1 0 0 0
120 1 0 0 0

Atoms # full

8 5 6 -0.08550000000000001 13.324835126381263 17.294078710921507 11.587799645264178 1 1 1
99 5 1 0.165 12.122423755141524 13.8884400422728 15.259469250164532 1 1 0
20 5 3 0.042 18.174423010766166 12.570220053003252 11.133730132744251 1 1 1
27 5 3 0.042 16.68236870628737 11.877162910526863 11.85435537633239 1 1 1
15 5 3 0.0592 14.989689124008244 15.205219840493418 11.914406312770794 1 1 1
19 2 3 0.0592 20.347062424841212 14.375526973993951 16.13328358987882 0 0 0
95 5 11 -0.1583 11.163255402557198 13.847628436173924 15.651572944506178 1 1 0
26 2 6 -0.08550000000000001 21.445836388987033 14.281710510309045 13.574109131821286 0 0 0
1388 5 3 0.042 18.193939382029768 14.728252801994643 16.975785167793344 2 2 1
813 2 11 -0.1583 17.800462893511604 19.527249788924593 16.104757801548743 0 0 0
105 2 3 0.042 18.887977496227307 18.934478117110444 12.126496013801198 0 0 0
1299 5 11 -0.1513 14.172054811478834 12.599307149784629 17.302401609501185 2 2 1
255 5 7 -0.3748 11.401367574250106 21.220856420647507 17.132665294724166 1 1 0
169 5 4 0.2457 10.69306475900754 17.439568701245204 16.769459182488482 1 1 0
6 5 3 0.042 12.51550413335053 15.448277879304172 13.763391570270656 1 1 1
17 5 3 0.0592 13.844512296321522 13.910432880817035 12.172300757940862 1 1 1
814 2 6 -0.08550000000000001 19.941760081086482 20.615347183672714 14.091142140563552 0 0 0
5378 5 3 0.042 16.806801348533035 13.706126347744561 11.839954321880295 1 1 1
172 5 10 -0.1026 11.314524428992346 18.739859537019314 16.690886673526194 1 1 0
807 2 6 -0.08550000000000001 18.282607719365924 19.0208118341693 13.027653514149328 0 0 0
1297 5 1 0.167 13.973305430021377 11.533748837264756 17.383122536997 2 2 1
3 5 3 0.042 11.574875951955205 14.491435089590167 12.682443519636411 1 1 1
810 2 3 0.042 18.65119660730358 18.15807594935775 13.638091142782576 0 0 0
1306 5 6 0.0466 16.239023514517356 12.376759328031032 15.763133409034351 2 2 1
804 2 3 0.0592 17.880400137804543 21.380299358951298 11.935686270445942 0 0 0
723 5 3 0.042 14.92403987878092 15.81045641020313 14.21811963036533 2 2 1
1455 2 4 0.2007 16.041584587555754 20.70426908186206 17.256105069837446 0 0 0
800 2 3 0.0592 15.607321737493372 20.60925646695521 11.890584681474165 0 0 0
808 2 4 -0.0713 16.440819125585637 21.221035605675745 14.972441467018424 0 0 0
801 2 3 0.0592 14.908326126651371 19.97909333272576 13.338512854795832 0 0 0
725 5 3 0.042 15.919289414446602 16.96297635649121 14.884692021479868 2 2 1
722 5 3 0.042 16.56414917507008 15.921639409129106 13.562875346036444 2 2 1
98 5 3 0.042 12.083934499821972 12.484615281136486 13.221310297659926 1 1 0
818 2 3 0.042 20.5168398483916 20.540772089645316 13.169678766700057 0 0 0
173 5 5 0.2498 12.664158730941153 18.75972287895774 16.2491534427962 1 1 0
816 2 1 0.165 18.673660775138572 18.843633629362387 16.115206780891203 0 0 0
5377 5 6 -0.08550000000000001 17.059215237750976 12.777588595798159 11.296126954488969 1 1 1
4 5 3 0.042 12.400109797842832 17.866711854963484 11.696669847823483 1 1 1
1307 5 4 -0.0713 15.76584313357738 11.074313665237604 15.241578576782603 2 2 1
802 2 6 -0.0684 15.14961689835705 20.847792940869212 12.796754078311626 0 0 0
803 2 3 0.042 17.257786714055566 18.869594993603062 12.793315668165272 0 0 0
720 5 4 -0.0653 15.504883588312435 14.531874210354257 16.53884098240409 2 2 1
5370 5 3 0.0592 14.559850313110477 12.233136965239026 10.916970474309297 1 1 1
104 5 2 -0.3298 13.73555458163515 18.655293799360287 15.879059053467273 1 1 0
724 5 6 -0.08550000000000001 16.00111962302551 15.950695018194889 14.468246539511325 2 2 1
1383 5 3 0.042 17.626003757437545 16.305461756997495 16.726205651491643 2 2 1
811 2 6 -0.008699999999999999 18.460759173970356 20.383343613188742 13.784642812984439 0 0 0
1310 5 11 -0.1513 15.15545594677612 10.826593742470505 14.016938002893156 2 2 1
1385 5 6 -0.08550000000000001 17.760288312863732 15.381588487357547 16.19092934415913 2 2 1
797 2 3 0.042 12.301684389666276 20.268568780016423 13.334913494108969 0 0 0
7 5 6 -0.08550000000000001 11.953775731663562 15.475722162260038 12.81394687864313 1 1 1
12 5 3 0.042 13.748335440879728 17.588539627234052 10.625146700174488 1 1 1
1300 5 4 -0.0713 15.169903000255488 13.175930570341752 16.4916931820781 2 2 1
14 5 6 -0.0684 14.078554478526286 14.746912890901035 11.498576915289247 1 1 1
9 5 6 -0.008699999999999999 12.856538806416138 15.804942496267849 11.59431488650178 1 1 1
1314 5 3 0.0592 16.293685768471292 13.386375267853403 13.901393998365306 2 2 1
1315 5 3 0.0592 17.891957839447922 13.290664759166258 14.714997844688732 2 2 1
1311 5 1 0.167 14.95981900490158 11.624218948125772 13.411566590676616 2 2 1
11 5 3 0.042 14.088300222753524 17.55508780214818 12.307189372673475 1 1 1
1313 5 6 -0.0684 16.841808393288638 13.47109547453 14.838639456015601 2 2 1
28 2 3 0.042 20.38084591870084 14.323989922465838 13.487508943703695 0 0 0
171 5 7 -0.3748 11.340382114139436 16.17725649198801 16.43820508248497 1 1 0
721 5 6 -0.008699999999999999 16.51925702152576 14.867453688914484 15.497358532693205 2 2 1
815 2 4 0.2077 16.947629258347565 19.623017155156674 17.21511414982608 0 0 0
106 2 3 0.042 20.39706972707419 20.03587420663566 14.86084032704843 0 0 0
120 2 3 0.042 20.224272301840024 16.69992888414858 14.130685308015 0 0 0
718 5 11 -0.1583 14.853985494198547 15.405251281851097 17.432846946298735 2 2 1
812 2 4 -0.0653 17.53254113650638 20.352226590466827 15.03818671917061 0 0 0
719 5 1 0.165 15.131487802205562 16.465956605620807 17.521772326225445 2 2 1
97 5 6 -0.08550000000000001 11.179935577136591 11.884569597782496 13.220163216005485 1 1 0
730 2 3 0.0592 21.0823838536394 15.837726537754403 16.749950144285645 0 0 0
969 2 3 0.042 13.038800771220059 20.696019787468927 10.653848276345784 0 0 0
118 2 6 -0.08550000000000001 21.346378684165508 16.69729987173747 14.232799865843347 0 0 0
94 5 3 0.042 11.413696498305505 10.931972597502627 12.673955930934161 1 1 0
1956 5 3 0.0592 17.150618076571476 12.566168658901534 17.669261584719564 2 2 1
1384 5 3 0.042 18.681690177550923 15.53446869651958 15.58488307173091 2 2 1
1958 5 3 0.0592 18.312110188921775 11.973950675845424 16.37062411025497 2 2 1
10 5 3 0.042 11.107113741570846 16.131245930564454 12.875356603037904 1 1 1
809 2 11 -0.1513 15.647896439797648 21.384936690582556 16.08361443187214 0 0 0
1305 5 6 -0.0684 17.33904235163115 11.929641387161569 16.865493258053363 2 2 1
24 2 6 -0.0684 21.27201280641804 14.925765768816223 16.16190745478052 0 0 0
253 5 4 0.2467 10.725838077144616 19.954661468697076 17.14281009313226 1 1 0
170 5 4 0.2077 10.624197989829781 15.000748833097173 16.31833327592674 1 1 0
101 5 3 0.042 12.708820786759542 10.849498241819928 14.950590847145907 1 1 0
96 5 6 -0.008699999999999999 10.641641591184271 11.391683128029733 14.647565176409337 1 1 0
795 2 6 -0.08550000000000001 12.595737072693604 21.31168011771966 13.368354730597265 0 0 0
191 5 7 -0.3748 20.689907060896886 21.329517499384536 10.717863856739228 1 1 1
1527 2 3 0.042 17.557370594657904 20.70405800148564 23.02681446351351 0 0 0
1462 2 10 -0.1036 15.969090867396826 17.721525985442767 20.200990511351247 0 0 0
1387 2 7 -0.3748 14.898507544140836 16.712893668703245 22.091797624542025 0 0 0
1967 2 4 0.2467 20.864937731187833 14.883256377258592 22.96423255660565 0 0 0
715 5 7 -0.3748 13.049098322617487 15.676188118661731 18.99412026798747 2 2 1
1532 2 11 -0.1583 20.177211260682633 20.471262062771736 24.34832530756035 0 0 0
2040 2 4 0.2007 14.168235096220071 16.88265171440507 23.241012564923032 0 0 0
1459 2 4 0.2457 14.329145905414924 18.998656231815232 21.515582472808976 0 0 0
713 5 4 0.2467 11.828447223928952 15.2498213325608 19.530752074244784 2 2 1
1393 2 10 -0.1036 19.931936489748054 15.508864192200772 23.736412952692156 0 0 0
1386 2 4 0.2467 15.068337097139475 17.82645567282455 21.307566533040923 0 0 0
2044 2 1 0.167 14.575444857410512 14.94351024833195 23.829867341130807 0 0 0
1458 2 4 0.2467 15.307987423510262 19.957207853909182 19.422739664884176 0 0 0
1460 2 4 0.2467 16.072361724792756 18.791640444869664 19.312785871674684 0 0 0
1966 2 4 0.2467 19.387195064053508 14.89300597424068 24.87713415021472 0 0 0
1395 2 2 -0.3298 18.970762259910213 17.686483191521212 22.6552954960466 0 0 0
794 5 2 -0.3298 11.648237024877485 18.604328830457273 19.909164841563943 2 2 1
2112 2 7 -0.3748 13.617500459906669 19.179820510913224 22.661204554622245 0 0 0
712 5 4 0.2467 11.441009169901715 13.889134707820675 19.42720577208854 2 2 1
2037 2 4 0.2077 13.461984588194856 18.11028948604526 23.58468381449009 0 0 0
732 2 1 0.167 21.523539667863552 15.986195493711762 19.09629055938241 0 0 0
1389 2 5 0.2498 16.754419368791684 16.561839970684854 19.94118689931004 0 0 0
714 5 7 -0.3748 12.287974000632827 12.99599081115248 18.816933656474824 2 2 1
1295 5 3 0.042 15.471490249972943 10.582873854515716 18.74599043861901 2 2 1
2043 2 11 -0.1513 14.025852243902499 15.786301163943733 24.12424220867365 0 0 0
2038 2 11 -0.1583 12.699046476760556 18.19248575914436 24.741468638412442 0 0 0
1456 2 7 -0.3748 15.316223606910366 20.879781398102423 18.382705804739693 0 0 0
1457 2 10 -0.1026 14.416158332596371 20.091173740605612 20.56797857699276 0 0 0
1390 2 2 -0.3298 17.27584428431239 15.518109348142268 19.706895257379188 0 0 0
1523 2 3 0.042 18.534279709900527 20.492178308060026 21.61646145270578 0 0 0
1394 2 5 0.2498 19.40640767280609 16.721344966231783 23.146677746336714 0 0 0
1963 2 10 -0.1026 20.619306581850314 12.862887330792734 24.31957778593354 0 0 0
1461 2 7 -0.3748 17.003349243506555 18.749251961820814 18.260911280150196 0 0 0
2113 2 1 0.165 12.35031333200613 19.17651072129319 25.07336297522503 0 0 0
2560 2 3 0.042 13.691989397618595 11.933013526179524 24.16558944204278 0 0 0
1534 2 4 -0.0653 20.41692741753434 21.48437513627542 23.418920624939112 0 0 0
793 5 10 -0.1026 10.872786628587525 16.156263746215696 20.066511029187353 2 2 1
1526 2 6 -0.08550000000000001 18.096331429188652 21.240829146908247 22.256132939080842 0 0 0
1529 2 1 0.165 19.19133495646598 20.214983207222723 24.692318559764754 0 0 0
1960 2 5 0.2498 20.95821205124671 11.474645876840878 24.518211690853953 0 0 0
716 5 4 0.2007 13.403040709178171 13.493816722197375 18.072252896352587 2 2 1
717 5 4 0.2077 13.725851555380258 14.846922096787928 18.171685380519662 2 2 1
1464 2 4 0.2077 21.288054123671653 19.63865090951387 24.67090181134442 0 0 0
711 5 5 0.2498 11.322990233097533 17.535606131868427 20.047606361758415 2 2 1
1964 2 4 0.2467 19.635897148054703 13.530258542802697 25.06322819403231 0 0 0
1965 2 4 0.2457 21.300575402952916 13.601539566806514 23.312762576373423 0 0 0
1454 2 5 0.2498 13.658449160289704 21.313228019542933 20.60471554696811 0 0 0
729 2 7 -0.3748 21.289587717037662 15.454646361124862 21.759309194869125 0 0 0
2561 2 3 0.042 14.446066413656508 10.84508777261614 25.11635933098375 0 0 0
13 2 3 0.042 21.170193868023553 10.722554668305776 17.94821744327114 0 0 0
2563 2 6 -0.08550000000000001 13.574826643086539 11.511870871848373 25.15966828841796 0 0 0
3458 5 1 0.165 16.558518259697117 15.090427557479385 28.880909412924442 1 1 0
4190 5 6 -0.0684 18.615543314126022 12.908106039151724 31.97215457537518 1 1 0
2573 2 11 -0.1583 16.46190606051641 12.508060521027152 26.32682415864142 0 0 0
3459 5 11 -0.1513 18.714575313597614 16.614626808152615 31.67507886048385 1 1 0
4186 5 3 0.042 15.993231698023745 12.687964560672574 31.173315204629404 1 1 0
2575 2 4 0.2007 17.43626004124138 14.781969790982174 26.21246765624872 0 0 0
2036 2 6 -0.08550000000000001 10.737252556742126 16.875187894522554 27.111654718305072 0 0 0
2164 5 4 -0.0653 11.308986562951599 19.864947575838027 32.3606681478586 1 1 0
2567 2 6 -0.008699999999999999 13.804087061928097 12.489225760514831 26.36995169802217 0 0 0
3455 5 7 -0.3748 16.592569086087575 17.70622908450385 28.997474628323022 1 1 0
2049 2 3 0.0592 13.992580049982747 16.171519085885667 28.331263417042564 0 0 0
2041 2 6 -0.008699999999999999 12.28346269710977 17.031212175605784 27.157838158911648 0 0 0
2046 2 3 0.0592 12.61429796615559 15.23160097072099 28.479221160397614 0 0 0
1391 2 7 -0.3748 18.379221602183392 15.496993015730542 25.552494348268553 0 0 0
2045 2 6 0.0466 13.651187189486082 14.997433788802525 26.509452643654008 0 0 0
3456 5 4 0.2007 17.906435782937095 17.412120086040883 30.864195832382602 1 1 0
3453 5 4 0.2457 16.59517306678108 19.05776141095623 29.216911255823536 1 1 0
2649 2 6 -0.08550000000000001 12.591043790486331 18.185659929594703 28.116269823769418 0 0 0
3464 5 3 0.042 19.386532810087047 11.622720893962287 29.653151463781217 1 1 0
3463 5 6 -0.08550000000000001 19.0590010367981 12.653715750826246 29.349960476199342 1 1 0
2115 2 5 0.2498 20.8053585207011 16.750047847446567 27.473502980491933 0 0 0
3461 5 4 -0.0713 18.687384395821752 15.220902972385066 31.49918294546719 1 1 0
3391 5 3 0.042 16.213193815240206 12.647837491559073 29.519476077068415 1 1 0
2651 2 3 0.042 13.69643547452688 18.424625009050544 28.22640539613359 0 0 0
2754 5 4 0.2467 16.328034286794118 21.31058296176667 28.429217159640533 1 1 0
2568 2 6 -0.08550000000000001 13.763302216394266 11.763918064809198 27.76457404895456 0 0 0
4194 5 3 0.0592 19.20056739918408 12.057172778704297 32.221941902212365 1 1 0
2039 2 4 -0.0653 12.783391632828407 17.118186285470262 25.674922441967794 0 0 0
4112 5 3 0.042 16.840741144417073 11.325205691357306 30.367859506426896 1 1 0
3460 5 4 -0.0653 17.90536401677886 14.63728829467437 30.483785616344438 1 1 0
3454 5 4 0.2077 17.203604075793 16.84107226656152 29.8260496483338 1 1 0
2574 2 4 -0.0713 15.089207075744318 14.49298575044815 26.525483175054582 0 0 0
3457 5 11 -0.1583 17.106015219420144 15.47886595905797 29.68944039435404 1 1 0
2048 2 3 0.042 12.054080381098105 19.045760181189042 27.74433926967316 0 0 0
3506 5 5 0.2498 17.135070261757193 21.338981973788353 32.13389441419363 1 1 0
4116 5 3 0.042 18.486829933981404 12.524798132351373 28.46449767721898 1 1 0
2165 5 1 0.165 11.549558822588274 19.58618166721446 30.181057152583946 1 1 0
3465 5 3 0.0592 21.112771187338183 14.129739114463135 30.570525771720064 1 1 0
2704 5 10 -0.1026 16.275540091288338 19.91692688452555 28.17620836470316 1 1 0
2572 2 1 0.165 16.511444292375057 11.48673605598888 26.100735558509243 0 0 0
2706 5 2 -0.3298 15.813008600997495 18.940347922752565 25.867687686415202 1 1 0
3397 5 3 0.042 19.975086904149272 13.23946415930159 29.173526556178903 1 1 0
2698 5 3 0.042 14.03274662945692 19.10580330554058 31.294212195431918 1 1 0
1961 2 4 0.2077 17.56926668439211 13.367051961481412 26.2304014663493 0 0 0
3462 5 6 -0.008699999999999999 18.08810215676928 13.107923644272336 30.469637679667994 1 1 0
1962 2 7 -0.3748 18.691950819792563 12.778916770992183 25.76264306403931 0 0 0
2647 2 3 0.042 12.195726020000544 17.86697063713034 29.097176285408956 0 0 0
4196 5 6 -0.0684 20.9586527537138 13.916004375080966 31.655805140356073 1 1 0
3452 5 6 -0.08550000000000001 16.72036806440073 12.434230930332456 30.413149615157636 1 1 0
3507 5 10 -0.1036 16.909591202865105 20.87791805234835 30.761145099538616 1 1 0
3508 5 4 0.2467 17.082251166624523 19.525898015608284 30.445952974130808 1 1 0
3509 5 7 -0.3748 17.65131623904248 18.646558243628068 31.308447764947367 1 1 0
2571 2 4 -0.0653 15.200256214177152 13.132573844057355 26.336890570183446 0 0 0
2562 2 3 0.0592 12.12902216251471 13.49063912161789 27.175823674103526 0 0 0
2050 2 11 -0.1513 16.186912750434576 15.350351172071605 26.41648666246371 0 0 0
2114 2 2 -0.3298 20.02939789837119 16.951785126361038 28.337130864157015 0 0 0
2565 2 6 -0.0684 12.791231156063452 13.664791044038529 26.29451137532959 0 0 0
3526 5 3 0.042 21.328109449419824 16.58842877602272 31.31669840493923 1 1 0
2047 2 6 -0.0684 13.11133173416323 15.790179582277442 27.74128656801895 0 0 0
2705 5 5 0.2498 16.001418785659673 19.404109605807214 26.869589711370182 1 1 0
4197 5 3 0.0592 21.194151148109036 12.825479386182147 31.801450307038387 1 1 0
4192 5 6 0.0466 19.458754957308976 14.155325988051976 32.20711125709384 1 1 0
2570 2 3 0.042 12.760261482343518 11.360462746449032 27.967202657864874 0 0 0
2566 2 3 0.042 12.592408006410416 10.971909984989464 25.369292769459193 0 0 0
2569 2 3 0.042 14.030652876865204 12.38903936372673 28.655759230556225 0 0 0
1463 2 7 -0.3748 21.171626006282036 18.67691664921499 25.57768737371203 0 0 0
2052 2 1 0.167 15.99137934320023 16.399995073222907 26.2316352715715 0 0 0
2042 2 4 -0.0713 13.451577818644115 15.971807214768479 25.334969877697894 0 0 0
2564 2 3 0.042 14.397133793803933 10.884827153847768 27.730785041937867 0 0 0
2035 2 3 0.0592 12.08911496385151 13.744507880404587 25.496506675879395 0 0 0
2108 5 6 -0.08550000000000001 13.771414743300049 19.08986829890764 32.353086890389605 1 1 0
2163 5 11 -0.1583 10.807142963751838 19.607341250331782 31.058679246701793 1 1 0
4189 5 11 -0.1513 18.944334525434 14.761625581387978 34.70032444210497 1 1 0
3393 5 4 0.2007 16.24690497475163 11.95013027182602 37.88237870836858 1 1 0
2648 5 4 0.2077 16.703438927884108 12.270471372450892 36.59449293607926 1 1 0
3513 5 1 0.167 19.234048001702917 17.055888629967235 32.50210636858872 1 1 0
3606 5 6 0.0466 20.77347649732144 20.039439354143404 38.646703509005675 1 1 0
3514 5 4 -0.0713 19.707340614919534 19.363082366645337 39.48992590834194 1 1 0
2700 5 4 0.2467 14.131937642125699 12.856823420092931 37.47755317085689 1 1 0
4195 5 4 -0.0653 21.170008552395622 14.935967440189208 33.72063496597709 1 1 0
4193 5 4 -0.0713 19.862228233556916 14.572214782406437 33.64152914059264 1 1 0
2652 5 11 -0.1583 18.029746232971515 12.063588887057826 36.101795987360106 1 1 0
3400 5 4 -0.0713 18.434805516615715 11.071457849607484 38.27567574995345 1 1 0
2694 5 1 0.167 11.620578214266727 17.304034704307806 33.612638796882464 1 1 0
2656 5 6 -0.008699999999999999 20.24922239680766 10.856114500412497 36.63252817366638 1 1 0
3502 5 5 0.2498 14.103674734806418 16.68767707348792 38.29219710212542 1 1 0
3512 5 11 -0.1513 18.5366035120928 18.809687813317588 39.00800898305465 1 1 0
4773 5 7 -0.3748 18.670705811608418 15.140571427735662 37.05193368085838 1 1 0
4772 5 5 0.2498 17.15155205627847 14.672558440529363 39.69891623257547 1 1 0
2752 5 3 0.0592 13.32186397193961 19.496169608876905 34.920134151322486 1 1 0
2654 5 4 -0.0653 18.902258190350892 11.483749459584418 36.947829280006815 1 1 0
2699 5 10 -0.1026 13.880701768447715 13.959783940240555 35.29432939003897 1 1 0
3511 5 1 0.167 18.20947770923017 18.893404522202154 37.99699172328094 1 1 0
2701 5 5 0.2498 14.371973821725614 14.323324638894704 34.03732747191158 1 1 0
4191 5 4 0.2007 19.45921063034863 15.19006514897979 35.95311785917984 1 1 0
2695 5 7 -0.3748 11.94433570551539 15.070053491988036 34.8308603261145 1 1 0
2646 5 7 -0.3748 15.769296457849997 12.669250093310453 35.7419217905729 1 1 0
3395 5 11 -0.1513 17.184244119113465 11.385625469507954 38.779936627092326 1 1 0
2696 5 4 0.2467 12.149970118540564 14.07323069015806 37.04049436485058 1 1 0
3451 5 10 -0.1036 12.848436934282274 13.218231607185139 37.91847168049003 1 1 0
3604 5 4 -0.0713 20.27473325479177 21.165007101228827 37.793633215356984 1 1 0
2702 5 4 0.2457 14.586945949296995 13.087011099115514 36.13676094531371 1 1 0
2697 5 4 0.2467 12.559771206001276 14.211306736071974 35.668141012299046 1 1 0
3450 5 5 0.2498 12.36064101364937 12.9956772056181 39.245672237085444 1 1 0
4187 5 1 0.167 17.91788789348746 14.387278582785589 34.4904135591838 1 1 0
2168 5 6 -0.008699999999999999 12.732213870281896 20.13120490689191 32.77428299838088 1 1 0
2109 5 3 0.042 14.641931776052184 19.374739879665555 32.92009581903861 1 1 0
4846 5 4 0.2467 19.214623415413588 15.336302015625034 38.3171710706115 1 1 0
2692 5 11 -0.1513 11.335348580063942 17.348026388703275 34.61674106141115 1 1 0
2691 5 4 0.2007 11.309700015224063 16.165355194553296 35.373305943945965 1 1 0
3500 5 3 0.042 11.520365870439553 19.59524120806511 38.942458609017834 1 1 0
3501 5 2 -0.3298 14.017230666673761 16.480521935853144 37.18543296388253 1 1 0
4850 5 10 -0.1036 21.32373051961967 15.729843832588202 39.565144373091144 1 1 0
2653 5 1 0.165 18.291956896291094 12.161038068919673 35.05546966156743 1 1 0
3515 5 3 0.042 20.401588864680946 19.164544955008317 34.99401844294543 1 1 0
4242 5 4 0.2077 20.824181441886218 15.558112302809043 35.9850349352241 1 1 0
3505 5 7 -0.3748 16.471028282284703 17.755296542387438 39.346886520477454 1 1 0
2744 5 4 -0.0713 11.0257654385153 18.511697031388998 35.24008149815009 1 1 0
2750 5 6 -0.0684 12.608713900517444 20.13508158635775 34.37894833143327 1 1 0
2747 5 3 0.042 11.664638470569287 21.272686619094596 38.332227864519645 1 1 0
3390 5 7 -0.3748 14.935959894793612 12.116845803587378 38.336317691125366 1 1 0
2693 5 7 -0.3748 11.189388569678432 15.019582357718967 37.49241670305406 1 1 0
3409 5 6 -0.08550000000000001 21.40066005730874 11.888105688873122 36.469976879583015 1 1 0
2745 5 6 -0.08550000000000001 11.694992564236166 20.190138140784764 38.0034662092271 1 1 0
2749 5 3 0.042 12.576773846590669 20.006252224646023 37.460481671469175 1 1 0
2690 5 4 0.2077 10.944048570296822 16.17805727004506 36.708816053841645 1 1 0
3503 5 10 -0.1036 14.252530807375008 16.869943858316745 39.68675970646717 1 1 0
4849 5 4 0.2467 20.616722699798032 15.689025217198719 38.39960721884913 1 1 0
2742 5 4 -0.0653 10.625981806329605 18.556154888120428 36.57027133144091 1 1 0
2746 5 6 0.0466 11.113807678158564 19.8570258630358 34.73576937491843 1 1 0
3524 5 3 0.0592 20.908034879010053 18.278638386439837 37.327873089105985 1 1 0
2751 5 3 0.0592 12.804957827905072 21.205115664258507 34.72583030032 1 1 0
4844 5 10 -0.1026 18.5635543450109 15.00399611050228 39.49568122390538 1 1 0
3410 5 3 0.042 21.065657732603775 12.569527741144235 35.73323096453236 1 1 0
3392 5 1 0.167 16.85777902098088 11.134230007580673 39.795553658939866 1 1 0
3605 5 4 -0.0653 20.827419951886874 21.17280688502747 36.562167458982785 1 1 0
2111 5 3 0.042 13.47888987739774 18.091414356266746 32.766862482094304 1 1 0
2703 5 2 -0.3298 14.81040209442985 14.541145869251714 33.018925307154504 1 1 0
4188 5 3 0.0592 17.71020511624576 12.980431181636543 32.55927190301463 1 1 0
4851 5 7 -0.3748 21.34744863042055 15.882223208918335 37.23951784676898 1 1 0
3518 5 6 -0.08550000000000001 21.47497243420655 19.33462319791181 34.965785409558336 1 1 0
2661 5 3 0.042 20.25442367788893 10.612307498978572 34.38473519097194 1 1 0
2743 5 6 -0.0684 10.573406287324644 20.755261019841768 35.798458162912254 1 1 0
4233 5 4 0.2467 15.491400837409152 17.20939183867697 40.15521140374827 1 1 0
5525 5 1 0.165 17.72682007297085 14.07190697443437 44.27240073472514 1 1 0
4239 5 11 -0.1583 19.076654568620405 18.791895211622744 41.81807474783277 1 1 0
4840 5 2 -0.3298 19.945645284828668 18.226534594334215 45.136193852011985 1 1 0
4183 5 7 -0.3748 12.480169683819568 16.12127026941103 42.928984396931696 1 1 0
5366 8 3 0.042 13.869045209919655 12.304961907495278 43.478181088908585 1 1 -1
5532 5 4 -0.0713 20.86849818851028 14.382044524278422 45.39770600575284 1 1 0
4719 8 3 0.042 13.86148273326505 11.812712868757206 41.76331116531226 1 1 -1
5280 8 3 0.042 15.300853055591388 11.623456103539432 42.734487288827324 1 1 -1
4230 3 3 0.042 17.11109010517864 20.939938084477294 42.44340350375724 0 0 0
5527 5 11 -0.1583 18.74463183613807 14.261206827458167 44.248387651932774 1 1 0
4235 5 5 0.2498 15.060130359710142 16.91887044689206 43.921121290133144 1 1 0
4842 5 5 0.2498 19.91408807972675 19.323880374790793 45.45078507807649 1 1 0
4179 5 7 -0.3748 11.940166745529249 16.19078957757275 40.19704598524774 1 1 0
4838 5 7 -0.3748 17.486055078044757 20.294834569436837 46.530785554133374 1 1 0
5529 5 4 -0.0653 19.520507042406223 14.137866384515997 45.42613831808653 1 1 0
4178 5 4 0.2007 10.92287339026498 15.90779925939513 41.060176266982126 1 1 0
5976 8 6 -0.0684 13.220475260364811 10.95793106311482 46.784757178956696 1 1 -1
5528 5 6 -0.008699999999999999 18.923962315625076 13.95118631550044 46.82472199973587 1 1 0
4843 5 10 -0.1026 19.81979609279875 20.721774900594745 45.94177484305396 1 1 0
4841 5 7 -0.3748 18.678309091561218 14.697203364847908 41.855341941877754 1 1 0
4847 5 4 0.2467 20.616095721334894 15.452217783175666 40.738259903051045 1 1 0
4238 5 4 0.2077 17.89850783943959 18.22876742856592 41.262175464392854 1 1 0
4231 5 10 -0.1026 14.744066572293086 16.92337811936724 42.4727239333081 1 1 0
5530 5 4 0.2077 19.349685485511827 14.645838291931671 43.050187470766204 1 1 0
5277 8 6 -0.08550000000000001 14.242587981268503 11.519219509553135 42.77228345679136 1 1 -1
4839 5 4 0.2457 18.664013104947607 21.152353515278655 46.55495791481118 1 1 0
4234 5 2 -0.3298 15.224200472383803 16.8745731211131 45.064228472958874 1 1 0
4185 5 4 0.2467 13.482906238920922 16.48454223524857 42.00727935509561 1 1 0
5980 8 3 0.0592 13.835418011228333 11.754753775358813 46.463089228065684 1 1 -1
4307 5 3 0.042 20.67589240075175 20.99380008251452 43.131631760822074 1 1 0
4180 5 4 0.2077 11.189423556856822 15.880129980566458 42.473370827701046 1 1 0
4182 5 4 0.2467 13.224506129635982 16.469832667271994 40.57054440169843 1 1 0
4240 5 1 0.165 19.201696139552666 18.855097966129215 42.863080659610645 1 1 0
4237 5 7 -0.3748 16.888209355263342 17.80800125496798 42.08379474330802 1 1 0
4310 5 6 -0.008699999999999999 21.27428045939771 20.123349895289984 41.14468062197683 1 1 0
4845 5 4 0.2457 19.280638664211747 15.07119536911777 40.708446282586685 1 1 0
4236 5 4 0.2457 15.69697335638812 17.286217025947664 41.59570269651661 1 1 0
5533 5 4 0.2007 20.757285461350325 15.013131718224106 43.138401488227814 1 1 0
4241 5 4 -0.0653 20.02385403235616 19.35977953967391 40.86362738862635 1 1 0
177 5 6 -0.08550000000000001 18.05559833698908 12.68271781015098 46.89073355653814 1 1 0
5534 5 11 -0.1513 21.51032193136095 14.841558971479195 44.25581664055443 1 1 0
5526 5 3 0.042 17.17923759967211 12.88732282893233 46.294238147371885 1 1 0
178 5 3 0.042 18.61968705731904 11.839037191783422 46.5640150665061 1 1 0
3403 5 3 0.0592 19.188383520477842 10.879921882548842 40.721904846905744 1 1 0
3449 5 2 -0.3298 11.929694202238593 12.739087017769165 40.30428324155696 1 1 0
5984 8 3 0.0592 15.277053214461876 10.628615355916965 45.07970458921318 1 1 -1
4848 5 7 -0.3748 21.323841838249983 15.416088050054654 41.90790877674044 1 1 0
5358 8 3 0.0592 12.217355842072946 11.48625891521728 46.800024716341255 1 1 -1
4308 5 6 -0.08550000000000001 20.985431859292184 21.318408174500448 42.09582412162102 1 1 0
5612 5 3 0.042 18.64139856395834 16.093792169502596 46.91725005472746 1 1 0
5523 5 3 0.042 17.1187647437863 15.384810108459334 46.69948923387339 1 1 0
5535 5 6 0.0466 21.493588104609607 14.24920810545999 46.67102083055566 1 1 0
3510 5 4 0.2007 17.680368940461257 18.23623360427249 39.85445034097297 1 1 0
4229 3 3 0.042 16.99803302723548 21.388350944565513 44.252837369122844 0 0 0
4832 5 1 0.167 11.603335776788343 20.88143212565049 46.923043801686006 1 1 0
4771 5 2 -0.3298 16.069655861587687 14.407276784589714 39.955338241085656 1 1 0
5516 5 6 -0.008699999999999999 13.437241813953467 19.139864060117823 49.079814254265415 1 1 0
5361 5 11 -0.1583 10.812961073143201 15.86412467375348 53.8280584275128 1 1 0
5373 5 6 -0.008699999999999999 16.34724442315584 12.817890101273795 53.77481223295925 1 1 0
4721 1 5 0.2498 20.76199367570463 16.054511097205268 50.526571100951585 0 1 0
5519 5 4 -0.0653 14.296335851988289 20.121988385639753 48.355912469203176 1 1 0