LAMMPS data file via write_data, version 23 Jun 2022, timestep = 4092000

16480 atoms
10 atom types
13990 bonds
6 bond types
20580 angles
9 angle types
27210 dihedrals
7 dihedral types

-26.365870184199135 26.365870184199135 xlo xhi
-26.365870184199135 26.365870184199135 ylo yhi
-26.365870184199135 26.365870184199135 zlo zhi

Masses

1 14.01
2 1.008
3 12.01
4 1.008
5 12.01
6 12.01
7 16
8 1.008
9 1.008
10 16

Pair Coeffs # lj/cut/coul/long

1 3.8748 2.49951
2 0.0208 1.88746
3 0.1078 3.39771
4 0.0208 2.60018
5 0.1078 3.39771
6 0.1078 3.39771
7 0.1463 3.04812
8 0.0047 0.537925
9 0.00774378 0.98
10 0.150263 3.1169

Bond Coeffs # harmonic

1 232.52 1.538
2 375.92 1.097
3 386.49 1.091
4 222.58 1.511
5 540.28 0.981
6 176.864 0.9611

Angle Coeffs # harmonic

1 80.976 114.21
2 38.782 109.75
3 64.46 109.66
4 60.076 108.01
5 46.816 109.8
6 38.96 107.58
7 46.677 110.56
8 64.888 111.51
9 42.1845 109.471

Dihedral Coeffs # fourier

1 1 0.155556 3 0
2 1 0.21 3 0
3 1 0.155556 3 0
4 1 0.156 3 0
5 1 0.12 3 0
6 3 0.13 3 0 0.29 2 180 0.11 1 0
7 2 0.08 3 0 0.08 3 0

Atoms # full

6949 8 3 -0.0794 -23.32391260024496 -21.032520471274935 -21.545304308142686 1 0 0
6931 8 3 -0.0794 -23.01874176468914 -17.1337253454883 -19.730204303178102 1 0 0
6946 8 3 -0.0794 -22.28778387055481 -21.65203133125356 -20.6030516236145 1 0 0
6934 8 3 -0.0794 -22.19358825884568 -17.556381023013536 -18.432477939807978 1 0 0
6943 8 3 -0.0794 -21.940071813386776 -20.688964522376285 -19.384812845899805 1 0 0
6937 8 3 -0.0794 -20.92066806874524 -18.293205832476364 -18.782925932614155 1 0 0
6944 8 4 0.0397 -21.597827849998843 -21.22166333736595 -18.458650599826942 1 0 0
6945 8 4 0.0397 -22.899736239164884 -20.214019565816784 -19.033172580707955 1 0 0
6939 8 4 0.0397 -20.52341109836093 -18.647630912227157 -17.85234005274212 1 0 0
6936 8 4 0.0397 -21.830905544578556 -16.6751586140563 -17.858243226545014 1 0 0
6940 8 3 -0.0794 -20.934341915643955 -19.530696670933818 -19.828463573654226 1 0 0
6942 8 4 0.0397 -21.248081829099238 -19.030025996968142 -20.71295843313235 1 0 0
6941 8 4 0.0397 -19.8833140861716 -19.95795633646141 -19.917414827642872 1 0 0
6935 8 4 0.0397 -22.82829817217095 -18.09375433595975 -17.716876139184144 1 0 0
6938 8 4 0.0397 -20.178509759500738 -17.53178868818152 -19.202682155834772 1 0 0
6952 8 3 -0.0794 -23.780806885041592 -22.106995004487388 -22.59112859503709 1 0 0
6947 8 4 0.0397 -22.73970700816244 -22.60760109481435 -20.208932188073426 1 0 0
6950 8 4 0.0397 -24.15858951231328 -20.633672227644663 -20.985225597132523 1 0 0
6948 8 4 0.0397 -21.37302540794319 -21.9606418285977 -21.110711479913018 1 0 0
6841 8 3 -0.0794 -19.824229368151098 -14.655993937350415 -23.715653833680534 1 0 0
6951 8 4 0.0397 -23.02566161282497 -20.16141687176638 -22.159276267342648 1 0 0
6838 8 3 -0.0794 -20.299006153132893 -15.960491289746026 -23.211690070253542 1 0 0
6954 8 4 0.0397 -24.287070491561078 -22.928232704688284 -22.036613834376396 1 0 0
6835 8 3 -0.0794 -19.448623951674882 -17.098321465818515 -23.738924862522246 1 0 0
6932 8 4 0.0397 -23.288723422455707 -18.056893995193192 -20.30597113007925 1 0 0
6933 8 4 0.0397 -22.385881282394433 -16.5389276073435 -20.433634545689976 1 0 0
7452 9 3 0.13108 -25.022454092984642 -19.512792717853905 -14.952520696251495 1 0 -1
6928 8 3 -0.0794 -24.35563215944402 -16.529104491066022 -19.324895567676176 1 0 0
6953 8 4 0.0397 -22.86043540935422 -22.47787681720741 -23.026677731160625 1 0 0
6955 8 3 -0.0794 -24.66961410985075 -21.652283685039123 -23.84615732329644 1 0 0
6926 8 4 0.0397 -24.81012189918011 -15.318163094842042 -21.065671690906015 1 0 0
6925 8 3 -0.0794 -25.28433901709109 -16.170406075103678 -20.516905911443228 1 0 0
6929 8 4 0.0397 -24.89928635343505 -17.265740715585167 -18.7437397787754 1 0 0
6842 8 4 0.0397 -19.113653010456964 -14.111705966824873 -23.062162501305927 1 0 0
6930 8 4 0.0397 -24.140127872855643 -15.630047727394802 -18.783902223848774 1 0 0
6957 8 4 0.0397 -24.31162374558997 -20.709817598842065 -24.269314408435207 1 0 0
6832 8 3 -0.0794 -19.97725950332113 -18.542004340385333 -23.290643001916035 1 0 0
6819 8 4 0.0397 -19.468632568767816 -24.20771197049928 -23.93193839380141 1 0 0
6818 8 4 0.0397 -21.095768753107944 -23.95356125566326 -23.251836404063578 1 0 0
6817 8 3 -0.0794 -20.523046450596677 -24.3161097228161 -24.12376395398287 1 0 0
6839 8 4 0.0397 -21.309369077108883 -16.054943841022173 -23.54035910593622 1 0 0
3426 4 4 0.0397 -19.60305255948843 -15.561205528610015 -18.447180723671536 1 0 0
6843 8 4 0.0397 -19.280669554617724 -14.834337897192793 -24.647037413296925 1 0 0
6834 8 4 0.0397 -21.08287808265536 -18.523952300996694 -23.134751054126998 1 0 0
7467 9 2 0.100922 -24.10575660069825 -22.027294642845177 -15.663636358711413 1 0 -1
7464 9 3 0.104047 -23.417013220346362 -21.227992480242474 -15.462475968784672 1 0 -1
7455 9 1 -0.575479 -24.046318305834138 -20.45816931144264 -14.303454831665652 1 0 -1
6836 8 4 0.0397 -18.416850470158984 -17.115069661934676 -23.4469631664208 1 0 0
7466 9 2 0.100922 -23.168875106837554 -20.540742131206443 -16.362028471094266 1 0 -1
7465 9 2 0.100922 -22.48090806932787 -21.726884595002538 -15.140748461306242 1 0 -1
7453 9 2 0.09520000000000001 -24.42706414354123 -18.83523297112017 -15.583762548470549 1 0 -1
12230 1074 10 -0.8476 -19.853423735263924 -19.2309858607759 -14.944505243396836 0 0 -1
6833 8 4 0.0397 -19.518326282102137 -18.86586888636936 -22.34180672391671 1 0 0
12232 1074 9 0.4238 -20.273053724215025 -18.894089020916123 -14.093990526142903 0 0 -1
10124 372 10 -0.8476 -21.90682628672663 -23.99689715450256 -15.524692852125922 1 -1 0
7365 9 4 0.0397 -24.39256160417969 -22.58156036433445 -17.662194800713426 1 0 -1
10126 372 9 0.4238 -21.602684975626495 -24.03813342038791 -14.61273384572648 1 -1 0
6958 8 3 -0.0794 -24.776817083696457 -22.74433153543809 -24.879690729721258 1 0 0
6956 8 4 0.0397 -25.664569878091804 -21.437144611154643 -23.497631392242997 1 0 0
6960 8 4 0.0397 -23.795380144120784 -22.822145081887104 -25.287553856387646 1 0 0
7363 9 3 -0.0794 -25.483551093077345 -22.72098532879135 -17.98583750701935 1 0 -1
7362 9 4 0.0397 -25.230029086824345 -20.77657342959402 -18.925318858902937 1 0 -1
255 1 4 0.0397 -18.971076373041356 -24.496613287246625 -20.65846460418971 1 0 0
7055 8 2 0.100922 -19.338176973629512 -22.977046370991978 -14.69582598773446 1 0 0
6829 8 3 -0.0794 -19.63624234466567 -19.65649552596779 -24.40791546081901 1 0 0
12231 1074 9 0.4238 -18.880427899417658 -18.880263436906397 -14.993185485220197 0 0 -1
6825 8 4 0.0397 -19.98823283668146 -21.52340972922092 -26.195332426018137 1 0 0
6827 8 4 0.0397 -20.329977162263532 -21.331699404531854 -23.156543245773513 1 0 0
6814 8 3 -0.0794 -20.90800567797387 -25.748547132548286 -24.527873389477765 1 0 0
11414 802 10 -0.8476 -19.50640626169475 -25.315299692015792 -15.301060342854184 -1 0 -2
7043 8 4 0.0517 -18.818977901601368 -21.385745556294875 -17.213110791179613 1 0 0
6831 8 4 0.0397 -19.941259766816003 -19.355845277098393 -25.46414264641841 1 0 0
7809 9 4 0.0397 -25.519367564064975 -24.86547876336002 -21.664147669491783 1 0 -1
7454 9 2 0.09520000000000001 -25.61011770485424 -20.19510632340317 -15.547988043685303 1 0 -1
3424 4 3 -0.0794 -19.154455291680144 -14.60165503108317 -18.70702054532167 1 0 0
6844 8 3 -0.0794 -20.86275174171091 -13.59744426674011 -24.09940601716063 1 0 0
7052 8 3 0.104047 -19.232663856300487 -22.089121086595007 -14.072897947978305 1 0 0
10125 372 9 0.4238 -21.26019731808279 -24.524963721998184 -15.950734343721122 1 -1 0
6840 8 4 0.0397 -20.40834746919753 -15.984252368828445 -22.094789252196044 1 0 0
3431 4 4 0.0397 -19.33164586407498 -15.27870674278445 -16.12045433198746 1 0 0
6826 8 3 -0.0794 -20.35653650384611 -20.98406821282071 -24.170458672372952 1 0 0
5452 6 3 -0.0794 -0.5505650937429856 -22.39353871107127 -20.39212656981381 0 0 0
15218 2070 10 -0.8476 -4.385815030721364 -22.68939719061649 -15.234429179913759 -1 0 0
6830 8 4 0.0397 -18.547483841013097 -19.791822293026204 -24.51182236139258 1 0 0
6816 8 4 0.0397 -21.971771838566923 -25.797772877565926 -24.69496272138353 1 0 0
6847 8 3 -0.0794 -21.822641600131387 -14.053645927214216 -25.3741048035812 1 0 0
7499 9 4 0.0397 -26.1182250810842 -25.8855291334028 -14.956390221342575 1 0 -1
6961 8 3 -0.0794 -25.85882487138184 -22.515663557868898 -26.001733814024654 1 0 0
6959 8 4 0.0397 -24.967310163708987 -23.780237170813052 -24.50592872972805 1 0 0
6837 8 4 0.0397 -19.329534849403856 -17.056640356868655 -24.8234323746308 1 0 0
4283 5 4 0.0517 -0.39782963517338743 -13.270313752799229 -24.06350117823729 0 0 0
3561 4 4 0.0397 -23.30465451576537 -14.70099497501769 -15.26698070577384 1 0 0
3563 4 4 0.0397 -23.612423035645314 -13.810418650975546 -17.76927996654717 1 0 0
7064 8 4 0.0397 -18.07334246888258 -19.568090001654376 -18.064468019605858 1 0 0
6828 8 4 0.0397 -21.39705647168508 -20.738717653901475 -24.343117083548343 1 0 0
249 1 4 0.0397 -18.062024799062605 -22.817202723144103 -22.329148099285877 1 0 0
6963 8 4 0.0397 -25.89254227688504 -21.407315809086434 -26.232390691045293 1 0 0
6923 8 4 0.0397 -24.712938919008934 -17.455201912068823 -22.148212597319038 1 0 0
7815 9 4 0.0397 -23.283171286878343 -24.907675924152294 -21.209018966309856 1 0 -1
7817 9 4 0.0397 -22.668247638774204 -25.289746753247904 -18.921476133226193 1 0 -1
253 1 3 -0.0794 -18.011304819661937 -25.029503037556015 -20.556120727122376 1 0 0
10037 343 10 -0.8476 -4.262870282961661 -25.83508207156353 -25.199210697184114 0 -2 1
7053 8 2 0.100922 -19.833069681134504 -21.31063695962736 -14.491953516644768 1 0 0
5462 6 4 0.0397 -0.3415815515923377 -18.330630891143628 -19.149546276883378 0 0 0
7042 8 4 0.0517 -17.850647128824914 -22.39560408266629 -18.230909874073937 1 0 0
5468 6 4 0.0397 -1.1178076356311948 -16.234579016580348 -17.86839275374261 0 0 0
6809 8 4 0.0397 -18.276416374688285 -25.153437909740052 -25.6560319982256 1 0 0
7461 9 2 0.100922 -22.842426622256855 -18.730269156525615 -14.007572523079263 1 0 -1
7457 9 2 0.100922 -25.573087066986886 -21.971312970078444 -14.056165179944067 1 0 -1
3425 4 4 0.0397 -18.565967675545803 -14.704153470546178 -19.554247326070325 1 0 0
6811 8 3 -0.0794 -20.08438961060506 -26.349404976066605 -25.690325073716362 1 0 0
11808 933 9 0.4238 -0.7086741616339012 -23.849536514442658 -13.716455165126185 0 2 0
4383 5 4 0.0397 -0.7135417331614775 -15.331384688763256 -19.845078817714672 0 0 0
6922 8 3 -0.0794 -25.594328999628626 -17.264655173679493 -21.520279634166954 1 0 0
7456 9 3 0.104047 -24.745114875411282 -21.57397511718437 -13.485884917379357 1 0 -1
3560 4 4 0.0397 -21.94760125447741 -14.068371306833491 -16.183842772697595 1 0 0
7818 9 4 0.0397 -21.320757125357666 -26.04842044151531 -19.891657206283895 1 0 -1
12881 1291 10 -0.8476 -6.436828407250577 -26.00505712160883 -16.681828550853723 0 -1 -2
14762 1918 10 -0.8476 -0.439206581240704 -25.539175939008324 -14.535532789977921 0 0 0
7470 9 4 0.0397 -25.238339008519514 -16.88032852423752 -15.237091543133072 1 0 -1
6927 8 4 0.0397 -26.221932587282655 -15.80035937418033 -20.129364190400825 1 0 0
3559 4 3 -0.0794 -22.853474712886847 -13.800865880426741 -15.738968293503174 1 0 0
3430 4 3 -0.0794 -18.645160005486765 -14.460187675384656 -16.194139446233834 1 0 0
3427 4 3 -0.0794 -18.10605365636289 -14.358723468703936 -17.58398171131479 1 0 0
252 1 4 0.0397 -17.156010926134087 -25.21503698020293 -22.58791312263794 1 0 0
247 1 3 -0.0794 -17.089962295615962 -23.060749716267814 -21.879894858795144 1 0 0
254 1 4 0.0397 -17.5943682707043 -24.72506039060865 -19.554304225127186 1 0 0
7366 9 3 -0.0794 -26.170857875422424 -23.221018838412263 -16.683039498520817 1 0 -1
7368 9 4 0.0397 -25.62547519563964 -24.128779358361005 -16.22446875721884 1 0 -1
6783 8 4 0.0397 -14.59644756034844 -25.338817665351293 -26.113374897214957 1 0 0
3566 4 4 0.0397 -25.52711555677025 -14.096721661134238 -16.161252256481333 1 0 0
10038 343 9 0.4238 -3.8825587737439164 -25.96556553997564 -26.14721310100627 0 -2 1
4550 5 4 0.0397 -0.6088706242852027 -21.226497921579735 -26.239300023504924 0 0 0
5459 6 4 0.0397 -0.3297696355765076 -20.806518306818663 -18.018274085754122 0 0 0
14983 1991 9 0.4238 -0.07037173429246124 -23.280541920833148 -16.82479479180493 0 1 -1
4508 5 4 0.0397 -5.746834327738423 -20.010682806410134 -19.801253097172065 0 0 0
6820 8 3 -0.0794 -20.838916648883202 -23.326981855461597 -25.32098548390832 1 0 0
7460 9 3 0.104047 -22.935635677571334 -19.71432853101895 -13.562038665305991 1 0 -1
7807 9 3 -0.0794 -25.538754356597863 -25.920291181826094 -21.853891358819027 1 0 -1
6822 8 4 0.0397 -20.6352172369818 -23.863628440699816 -26.28482733549459 1 0 0
7364 9 4 0.0397 -25.509890867452157 -23.476578215220165 -18.767291181060983 1 0 -1
243 1 4 0.0397 -16.85472015371625 -20.610265213709106 -22.692283371240606 1 0 0
250 1 3 -0.0794 -17.045334576516538 -24.606733906091048 -21.698439621351355 1 0 0
13335 1442 9 0.4238 -5.549708108281461 -23.351322973190584 -24.16531811482964 0 1 -1
3422 4 4 0.0397 -20.876850947052905 -13.659525165701375 -17.938235250143293 1 0 0
248 1 4 0.0397 -17.086260691238714 -22.587135752280204 -20.911824528627584 1 0 0
3423 4 4 0.0397 -20.85705792318634 -13.755821705685728 -19.673195559545988 1 0 0
12907 1299 9 0.4238 -6.003361372442839 -26.32904391365687 -24.35222331725194 1 1 -2
4554 5 4 0.0397 -2.059820298219769 -23.060734766667718 -25.75838620306666 0 0 0
6846 8 4 0.0397 -21.398650376934427 -13.37294950030447 -23.210849595162543 1 0 0
11415 802 9 0.4238 -19.22448832458329 -25.494466522499764 -14.365689718619558 -1 0 -2
7468 9 3 -0.0794 -26.274805109339326 -17.336069791424812 -15.103903423754588 1 0 -1
7447 9 3 -0.02672 -26.04918617908352 -18.589130521146778 -14.18638554822987 1 0 -1
4559 5 4 0.0397 -1.2537819415263662 -25.823656794020614 -25.54949061352651 0 0 0
15220 2070 9 0.4238 -4.131341488288427 -22.13969898093173 -14.387751101261552 -1 0 0
14764 1918 9 0.4238 -1.3554575721715132 -26.120000620028943 -14.796689414958527 0 0 0
4345 5 3 -0.02672 -7.763095176957858 -15.678065017970685 -26.034262462774947 0 0 0
4367 5 4 0.0397 -9.616738328540336 -16.809047723771897 -25.640549003057636 0 0 0
3432 4 4 0.0397 -19.37751035090368 -13.680302931593053 -15.87489213320109 1 0 0
6849 8 4 0.0397 -22.533542605148362 -14.820945889751439 -25.003043924948454 1 0 0
6777 8 4 0.0397 -16.507704331341383 -22.89009112716748 -26.217245409914316 1 0 0
6924 8 4 0.0397 -25.75241011902787 -18.200635342798737 -20.981275990125376 1 0 0
6824 8 4 0.0397 -18.806734305711764 -22.23838737842289 -25.08923799971647 1 0 0
7367 9 4 0.0397 -26.046659758098528 -22.419988040203027 -15.887479645783507 1 0 -1
5461 6 3 -0.0794 -1.1099666353656445 -18.892863436599704 -18.55335197502047 0 0 0
4096 5 3 -0.0794 -7.819618718945087 -14.998176971684284 -14.657421678191646 0 0 0
3421 4 3 -0.0794 -20.19257907230216 -13.531749828490671 -18.810834172581387 1 0 0
12882 1291 9 0.4238 -6.06464619924186 -25.563409436350106 -15.866434819848457 0 -1 -2
5455 6 3 -0.0794 -0.6200307572020023 -20.841576771996294 -20.175996922790794 0 0 0
13980 1657 9 0.4238 -4.461713737531259 -25.677154143006717 -21.70883689701123 1 0 -1
3429 4 4 0.0397 -17.558169366353702 -13.423321046069798 -17.7063969247751 1 0 0
4491 5 4 0.0397 -6.926667941401266 -13.895873142658074 -18.50924728984587 0 0 0
7041 8 4 0.0517 -18.50977858988425 -23.03685660867183 -16.697748842590627 1 0 0
7045 8 2 0.09520000000000001 -17.978161158305618 -20.27649944322193 -15.28736240874183 1 0 0
7040 8 3 -0.09482 -18.0654014016313 -22.174114312038455 -17.172674364393245 1 0 0
7047 8 1 -0.575479 -17.844001548518914 -21.741504507397952 -13.863421081524741 1 0 0
7025 8 4 0.0397 -18.1620567358884 -18.211894106193107 -20.23644480660906 1 0 0
11416 802 9 0.4238 -18.872742754641482 -25.753622029068595 -15.978569447702794 -1 0 -2
7122 8 4 0.0397 -15.051842182698595 -13.262265410042641 -18.528813393296566 1 0 0
7019 8 4 0.0397 -17.052735320155406 -15.658394905306931 -21.240693599160284 1 0 0
7361 9 4 0.0397 -26.32808897409166 -20.79839851053184 -17.52456667064208 1 0 -1
15873 2288 9 0.4238 -0.026390716724883134 -19.436355543538955 -13.564142584287415 0 0 -1
6821 8 4 0.0397 -21.899044284724678 -23.139873252009906 -25.412676611620792 1 0 0
6808 8 3 -0.0794 -18.582931897596207 -26.186600398950745 -25.537369482679292 1 0 0
7048 8 3 0.104047 -17.116263889296185 -22.964808576086604 -13.33156978912999 1 0 0
3554 4 4 0.0397 -20.55830169143828 -13.312562381212246 -14.113409530242098 1 0 0
4332 5 4 0.0397 -11.915533871918115 -13.675847320505188 -22.971439256384503 0 0 0
16043 2345 10 -0.8476 -9.907692517208055 -21.945639044532218 -25.52506898973866 0 0 0
10152 381 9 0.4238 -7.874884065178037 -19.967886092260194 -13.66392679953613 1 0 -1
15790 2260 9 0.4238 -11.204672237363651 -22.41959474764417 -13.279257883283135 0 0 -1
3434 4 4 0.0397 -18.08802546148164 -14.620367512977376 -14.156461717083257 1 0 0
7026 8 4 0.0397 -16.947828053484773 -19.510933936502116 -20.54818551148974 1 0 0
6782 8 4 0.0397 -16.050367222874364 -25.039003581743778 -25.356571132727815 1 0 0
7049 8 2 0.100922 -17.570807120654024 -23.836248240683553 -13.836646124775859 1 0 0
15582 2191 9 0.4238 -13.625823259794611 -23.846562797300216 -23.06959061472795 0 0 -1
10670 554 10 -0.8476 -9.158327893310052 -24.629332185553228 -25.20815284328415 1 2 0
10153 381 9 0.4238 -7.584735021587733 -20.11981828249411 -15.355821222078385 1 0 -1
4555 5 3 -0.0794 -0.11798651495551127 -23.89516752068036 -26.061568421835744 0 0 0
7068 8 4 0.0397 -16.500157319515093 -17.24096379144131 -18.46743211698263 1 0 0
3433 4 3 -0.0794 -17.574554272760942 -14.490283209107975 -15.099481987876468 1 0 0
9911 301 10 -0.8476 -17.688502636146488 -17.880358558126765 -14.204710611153853 0 0 -1
13731 1574 9 0.4238 -14.498950716313919 -19.636536122245513 -14.30729779911719 0 -1 -1
239 1 4 0.0397 -15.478274676381034 -20.703010442867175 -25.047976752489895 1 0 0
7028 8 4 0.0397 -12.79172121343564 -26.065359612798325 -18.516718800578804 1 0 0
9912 301 9 0.4238 -16.80714372233021 -17.844803688827056 -14.460929766394395 0 0 -1
7011 8 4 0.0397 -14.493948530241378 -13.77555858212675 -24.221967958753268 1 0 0
3428 4 4 0.0397 -17.267908038192544 -15.144202752045254 -17.58420384530246 1 0 0
7010 8 4 0.0397 -13.556977228697894 -15.203867100791278 -24.200806217788276 1 0 0
15789 2260 9 0.4238 -11.41761705648021 -23.361481174160694 -14.566061582946999 0 0 -1
4372 5 3 -0.0794 -10.581464952121223 -15.395173604459238 -23.27927236717725 0 0 0
7013 8 4 0.0397 -16.069083005825014 -16.428967279055 -23.883602648476668 1 0 0
246 1 4 0.0397 -16.193178801855613 -22.912693809602587 -23.86995974928563 1 0 0
7115 8 4 0.0397 -13.878126645688464 -15.049065031608356 -16.598831460430908 1 0 0
241 1 3 -0.0794 -15.834256336049066 -21.00824102413459 -22.901511480006203 1 0 0
244 1 3 -0.0794 -15.915973846506017 -22.61173099553706 -22.879486903329592 1 0 0
242 1 4 0.0397 -15.256430063971829 -20.72667044606409 -22.04475634357912 1 0 0
13730 1574 10 -0.8476 -14.711653049303361 -18.60349988219057 -14.442142955867475 0 -1 -1
7065 8 4 0.0397 -17.19244367999022 -18.611055706013815 -16.825632478307732 1 0 0
7023 8 4 0.0397 -15.236808959518465 -18.110983717275218 -21.405896218591522 1 0 0
13732 1574 9 0.4238 -13.808381597126314 -18.201642329724244 -14.309181635865171 0 -1 -1
7020 8 4 0.0397 -15.88875615069525 -15.948175039920002 -20.008702590950193 1 0 0
240 1 4 0.0397 -15.465332483359125 -19.35085282540278 -24.178369576070736 1 0 0
238 1 3 -0.0794 -15.184031417048997 -20.39060191914029 -24.117496327787983 1 0 0
7063 8 3 -0.0794 -17.01983091135296 -19.284801919375397 -17.716434560457714 1 0 0
4107 5 4 0.0397 -11.983491067074413 -15.130412135143716 -14.50885649790124 0 0 0
234 1 4 0.0397 -11.797466660546055 -19.294084069432664 -24.321834187599713 1 0 0
7031 8 4 0.0397 -14.317044516174981 -25.352445540351418 -16.635704658855616 1 0 0
245 1 4 0.0397 -14.97301341589384 -23.044995224539573 -22.614976430689143 1 0 0
7024 8 3 -0.0794 -17.074657627418226 -18.4776036420934 -20.255857785998966 1 0 0
7017 8 4 0.0397 -14.611140387326019 -14.742990614274197 -21.659130453946016 1 0 0
3435 4 4 0.0397 -16.975884678595875 -15.440439672436213 -15.19649010031211 1 0 0
7066 8 3 -0.0794 -16.411756434143506 -18.336371855426886 -18.79876054650355 1 0 0
7027 8 3 -0.0794 -13.54090801340535 -25.32573470223158 -18.70953087797443 1 0 0
7070 8 4 0.0397 -12.77484558621754 -25.16650558867821 -20.686161613441087 1 0 0
7067 8 4 0.0397 -15.335100721912985 -18.545214820439156 -18.912813876986526 1 0 0
7073 8 4 0.0397 -11.034836565772588 -24.27701412006978 -19.322607739201537 1 0 0
7012 8 3 -0.0794 -15.671383465608242 -15.463476139436999 -23.493040373153 1 0 0
7022 8 4 0.0397 -16.605915453948434 -17.973992083399096 -22.222789880039166 1 0 0
237 1 4 0.0397 -13.407179478790898 -20.298180798198132 -22.907371439117416 1 0 0
7016 8 4 0.0397 -14.166216846648297 -16.28201862852712 -22.290543448085238 1 0 0
7032 8 4 0.0397 -13.273922995509931 -24.135820361768953 -16.85775773533758 1 0 0
7015 8 3 -0.0794 -15.052431143870928 -15.647029091773026 -22.08489089815124 1 0 0
235 1 3 -0.0794 -13.639711687662816 -20.435285590761772 -23.916282715598626 1 0 0
232 1 3 -0.0794 -12.817513193580083 -19.405169235804816 -24.771461467951013 1 0 0
7021 8 3 -0.0794 -16.22642102058762 -17.681975436838783 -21.292911887915867 1 0 0
7075 8 3 -0.0794 -11.421884653650752 -22.649676815203673 -20.75743635392616 1 0 0
7103 8 4 0.0397 -12.45709315783088 -20.109881920824392 -19.891240216322235 1 0 0
7110 8 4 0.0397 -13.537083257918026 -17.686930665336213 -19.116547751284614 1 0 0
7109 8 4 0.0397 -12.049049218921896 -16.904564241320543 -19.374246438625953 1 0 0
7035 8 4 0.0397 -15.844487162955469 -23.724771771865328 -18.318281726025077 1 0 0
7034 8 4 0.0397 -14.538088961527546 -22.662272356376626 -18.057726947529048 1 0 0
7030 8 3 -0.0794 -14.037669154043817 -24.622567641187526 -17.376453811359074 1 0 0
7105 8 3 -0.0794 -11.77934285301238 -18.7732160683271 -18.28985112055877 1 0 0
7018 8 3 -0.0794 -16.07384400388409 -16.18013576739228 -21.08490413301525 1 0 0
7108 8 3 -0.0794 -12.593912111376358 -17.500585710097063 -18.648713235541315 1 0 0
7062 8 4 0.0397 -15.63077570799994 -20.829191382835354 -18.16981061343043 1 0 0
7060 8 3 -0.0794 -16.121676471124147 -20.49490746163442 -17.25037323549027 1 0 0
7061 8 4 0.0397 -15.251173738138933 -20.012668407476575 -16.727688666157494 1 0 0
7039 8 3 -0.02672 -16.780777799772288 -21.68011014934962 -16.428845375015285 1 0 0
7044 8 3 0.13108 -17.18153092494506 -20.992916238477136 -15.08274207543997 1 0 0
7046 8 2 0.09520000000000001 -16.349652848129715 -20.439111211081403 -14.65307387131275 1 0 0
7038 8 4 0.0397 -14.924199856664798 -22.510414383757116 -15.687038884231809 1 0 0
7033 8 3 -0.0794 -15.08505062888117 -23.445516958030346 -17.56349854929493 1 0 0
7036 8 3 -0.0794 -15.786259341535585 -22.92706579804905 -16.287898890828814 1 0 0
7037 8 4 0.0397 -16.09954266890668 -23.808251689403168 -15.710810577670884 1 0 0
7069 8 3 -0.0794 -13.0267828919988 -24.437838820772026 -19.91761581235976 1 0 0
7074 8 4 0.0397 -11.935615379852615 -23.083759006319443 -18.6940871926996 1 0 0
7111 8 3 -0.0794 -12.774953242155402 -16.75509562051623 -17.288417118241146 1 0 0
7112 8 4 0.0397 -13.25212147053916 -17.411443824366074 -16.55063528294363 1 0 0
7114 8 3 -0.0794 -13.75899018656134 -15.583892332520465 -17.492218387553336 1 0 0
7072 8 3 -0.0794 -11.805094542969298 -23.63895764728163 -19.608594469874554 1 0 0
7071 8 4 0.0397 -13.85297787225198 -23.76565410712754 -20.295431859430426 1 0 0
7116 8 4 0.0397 -14.795085059317058 -15.892496303417317 -17.735597070282743 1 0 0
7102 8 3 -0.0794 -11.517885383686407 -19.66143227834528 -19.56251490159616 1 0 0
7076 8 4 0.0397 -12.238396214374765 -22.02082483172022 -21.076898919093534 1 0 0
7113 8 4 0.0397 -11.824155268199007 -16.482517729876974 -16.897125333566517 1 0 0
7107 8 4 0.0397 -12.256190938083684 -19.40131999863822 -17.52882201790491 1 0 0
7077 8 4 0.0397 -11.114900277985999 -23.358947389712615 -21.55419173643279 1 0 0
236 1 4 0.0397 -13.316907554004954 -21.409931161146257 -24.1625585230761 1 0 0
4374 5 4 0.0397 -11.36369100879331 -16.11910603729349 -23.518503541303446 0 0 0
7101 8 4 0.0397 -10.701118432782526 -21.276854298730484 -18.396397038877044 1 0 0
7119 8 4 0.0397 -13.377098931952473 -14.973986702390947 -19.65367664548163 1 0 0
233 1 4 0.0397 -13.302674530084174 -18.45816208931348 -24.56110810156656 1 0 0
7104 8 4 0.0397 -11.281662188689634 -19.034591782014413 -20.355128381405454 1 0 0
251 1 4 0.0397 -15.998532765782672 -24.701295002035447 -21.380440487764503 1 0 0
7014 8 4 0.0397 -16.528885656540318 -14.733380782833164 -23.469567002123156 1 0 0
4496 5 4 0.0397 -10.431403131661781 -15.579037726865048 -18.291020511808334 0 0 0
7106 8 4 0.0397 -10.763361009178515 -18.483983587554427 -17.907722585834613 1 0 0
7099 8 3 -0.0794 -10.398449563927107 -20.70223343851112 -19.299431742072688 1 0 0
15788 2260 10 -0.8476 -11.877620097084964 -22.87518677023836 -13.887159989513503 0 0 -1
7096 8 2 0.100922 -9.618993258792909 -24.77106660454782 -21.30263010227103 1 0 0
7080 8 4 0.0517 -10.553087374485077 -20.388983629283448 -22.08715809955674 1 0 0
7078 8 3 -0.02672 -10.144785623413114 -21.69850879656454 -20.416632416716983 1 0 0
7009 8 3 -0.0794 -14.615941320526696 -14.800079693840935 -24.47389475775563 1 0 0
4331 5 4 0.0397 -11.942497818566675 -14.638055614293657 -21.702529404873435 0 0 0
4105 5 3 -0.0794 -10.922215770382667 -14.851547995311021 -14.380564275266554 0 0 0
7079 8 3 -0.09482 -9.659424831432002 -20.854169005758386 -21.622190052896613 1 0 0
7029 8 4 0.0397 -14.256882396669162 -25.94969614907385 -19.144328209802396 1 0 0
4369 5 3 -0.0794 -9.762590278221246 -14.948450097232907 -24.543833815319374 0 0 0
4106 5 4 0.0397 -10.572755508877743 -14.572438168629253 -15.382481770016556 0 0 0
15455 2149 10 -0.8476 -10.709134165037142 -24.491079972844396 -15.763110692242423 1 1 -1
4373 5 4 0.0397 -9.866243978774637 -15.80492923194471 -22.570538132680923 0 0 0
15456 2149 9 0.4238 -10.885335589718384 -25.470047363515643 -16.068337173084714 1 1 -1
4330 5 3 -0.0794 -11.213247593731106 -14.24233450201665 -22.44174367246823 0 0 0
7100 8 4 0.0397 -9.42004409740343 -20.242621937086376 -19.00304143710452 1 0 0
7117 8 3 -0.0794 -13.284475070001067 -14.635437386823995 -18.580168766800796 1 0 0
229 1 3 -0.0794 -12.60978285419095 -19.77408828138276 -26.191024091763023 1 0 0
4371 5 4 0.0397 -10.47968624625738 -14.550578611522752 -25.28920690470795 0 0 0
15907 2299 9 0.4238 -11.515467254156162 -19.692676932165703 -14.393963624896996 -1 0 -1
7084 8 2 0.09520000000000001 -9.37660298298412 -23.02824082500794 -19.042204369317524 1 0 0
15457 2149 9 0.4238 -9.870429370758565 -24.2529995493741 -16.299144579351342 1 1 -1
10671 554 9 0.4238 -10.049470368672399 -24.99065491282322 -25.535127656419125 1 2 0
15581 2191 10 -0.8476 -12.921577031331642 -24.222028318751157 -23.613464287358475 0 0 -1
16045 2345 9 0.4238 -9.727158838713294 -22.862292246747995 -25.15913879687914 0 0 0
15583 2191 9 0.4238 -12.849816334617762 -25.255244169981353 -23.335287830676137 0 0 -1
7505 9 4 0.0397 -24.047832872040985 -25.19168721614922 -13.357807450661781 1 0 -1
4391 5 4 0.0397 -0.039478791173014116 -17.323166419450047 -24.16211725871792 0 0 0
5457 6 4 0.0397 -1.1466433878101334 -20.506564014543446 -21.018115356871256 0 0 0
4104 5 4 0.0397 -10.012588891562196 -16.807825633276487 -14.271034241226564 0 0 0
13435 1475 9 0.4238 -12.295596288327864 -24.68083794430266 -25.199678860042855 0 0 0
7118 8 4 0.0397 -12.219025865573123 -14.41214691534783 -18.437612015229483 1 0 0
4328 5 4 0.0397 -9.164468742270838 -13.628313371891023 -21.819524192336665 0 0 0
13336 1442 9 0.4238 -4.367734588198282 -24.368234000740724 -24.390166873132756 0 1 -1
4327 5 3 -0.0794 -10.220973925470432 -13.23672756937167 -21.774393271143822 0 0 0
4280 5 3 -0.09482 -0.4415541877988005 -13.39912418151801 -25.168298305200576 0 0 0
16044 2345 9 0.4238 -10.560165690447686 -22.11376779567609 -26.20376994369008 0 0 0
4370 5 4 0.0397 -9.121221070743097 -14.161341249133947 -24.278406840884465 0 0 0
4108 5 3 -0.0794 -11.019145406428285 -13.55804385263925 -13.476356018439434 0 0 0
6823 8 3 -0.0794 -19.88358302225719 -22.019541632842376 -25.184321661458313 1 0 0
4097 5 4 0.0397 -7.903850595707926 -15.815953985215472 -15.358608691046348 0 0 0
14982 1991 9 0.4238 -0.15099180938037904 -22.474616668907895 -15.407274149091549 0 1 -1
7813 9 3 -0.0794 -23.28938605450889 -26.014527555308224 -20.895456077380878 1 0 -1
5463 6 4 0.0397 -2.00829835128987 -18.506703952351337 -19.081126496975827 0 0 0
4497 5 4 0.0397 -9.457196864065303 -15.322329208456045 -19.845216541885964 0 0 0
4495 5 3 -0.0794 -9.461145754255995 -15.332487329452013 -18.72725054881297 0 0 0
7816 9 3 -0.0794 -22.414942494775847 -26.177417814715646 -19.59981198149261 1 0 -1
7360 9 3 -0.0794 -26.034623094864468 -21.333490749349384 -18.44431249084407 1 0 -1
7004 8 4 0.0397 -16.26771369461844 -13.499038404939567 -26.25396279497178 1 0 0
4094 5 4 0.0397 -5.808174560518584 -15.740920131444307 -14.21378720187565 0 0 0
4095 5 4 0.0397 -6.088194733281092 -14.284776350952187 -13.513579350181496 0 0 0
14981 1991 10 -0.8476 -0.5708176505324758 -22.568326624330727 -16.23238456573432 0 1 -1
6781 8 3 -0.0794 -15.70159887924517 -25.44286400356149 -26.32294947463907 1 0 0
4282 5 4 0.0517 -1.5272616792325309 -13.560398732448844 -25.28632269411698 0 0 0
7504 9 3 -0.0794 -23.634940070815507 -26.182039420194258 -13.47214294653506 1 0 -1
9306 99 9 0.4238 -4.872366616917663 -20.939111057455126 -15.724904879156787 0 0 -1
4337 5 4 0.0397 -5.733332558074974 -13.274270987529075 -22.902766353815096 0 0 0
4359 5 2 0.100922 -4.363455466413871 -15.934735041986876 -26.11262317706997 0 0 0
4382 5 4 0.0397 -0.6348688639723576 -14.184369494458622 -21.184163073037027 0 0 0
4492 5 3 -0.0794 -9.112742772114796 -13.906782599733084 -18.273820262079994 0 0 0
4558 5 3 -0.0794 -0.3344608101823958 -25.44587146300714 -25.89187805574172 0 0 0
5469 6 4 0.0397 -2.5547996420965653 -16.816479782149216 -16.83055939650219 0 0 0